####################################################################### 
# 
# This file contains crystal structure data downloaded from the 
# Cambridge Structural Database (CSD) hosted by the Cambridge 
# Crystallographic Data Centre (CCDC).
# 
# Full information about CCDC data access policies and citation 
# guidelines are available at http://www.ccdc.cam.ac.uk/access/V1 
# 
# Audit and citation data items may have been added by the CCDC. 
# Please retain this information to preserve the provenance of 
# this file and to allow appropriate attribution of the data. 
# 
#######################################################################

data_P4mbm
_audit_block_doi                 10.5517/ccdc.csd.cc258rmv
_database_code_depnum_ccdc_archive 'CCDC 2004417'
loop_
_citation_id
_citation_doi
_citation_year
1 10.1021/acsenergylett.0c01166 2020
loop_
_audit_author_name
_audit_author_address
'Graeme R. Blake'
;Zernike Institute for Advanced Materials, University of Groningen
Netherlands
;
_audit_update_record             
;
2020-05-18 deposited with the CCDC.	2022-09-06 downloaded from the CCDC.
;

_audit_creation_method           SHELXL-2018/3
_shelx_SHELXL_version_number     2018/3
_chemical_name_systematic        'Formamidinium tin triiodide'
_chemical_name_common            ?
_chemical_melting_point          ?
_chemical_formula_moiety         ?
_chemical_formula_sum            'C2 I6 N4 Sn2'
_chemical_formula_weight         1078.84

loop_
_atom_type_symbol
_atom_type_description
_atom_type_scat_dispersion_real
_atom_type_scat_dispersion_imag
_atom_type_scat_source
C C 0.0033 0.0016 'International Tables Vol C Tables 4.2.6.8 and 6.1.1.4'
I I -0.4742 1.8119 'International Tables Vol C Tables 4.2.6.8 and 6.1.1.4'
N N 0.0061 0.0033 'International Tables Vol C Tables 4.2.6.8 and 6.1.1.4'
Sn Sn -0.6537 1.4246 'International Tables Vol C Tables 4.2.6.8 and 6.1.1.4'

_space_group_crystal_system      tetragonal
_space_group_IT_number           127
_space_group_name_H-M_alt        'P 4/m b m'
_space_group_name_Hall           '-P 4 2ab'

_shelx_space_group_comment       
;
The symmetry employed for this shelxl refinement is uniquely defined
by the following loop, which should always be used as a source of
symmetry information in preference to the above space-group names.
They are only intended as comments.
;

loop_
_space_group_symop_operation_xyz
'x, y, z'
'-x, -y, z'
'-y, x, z'
'y, -x, z'
'-x+1/2, y+1/2, -z'
'x+1/2, -y+1/2, -z'
'y+1/2, x+1/2, -z'
'-y+1/2, -x+1/2, -z'
'-x, -y, -z'
'x, y, -z'
'y, -x, -z'
'-y, x, -z'
'x-1/2, -y-1/2, z'
'-x-1/2, y-1/2, z'
'-y-1/2, -x-1/2, z'
'y-1/2, x-1/2, z'

_cell_length_a                   8.8821(6)
_cell_length_b                   8.8821(6)
_cell_length_c                   6.2698(6)
_cell_angle_alpha                90
_cell_angle_beta                 90
_cell_angle_gamma                90
_cell_volume                     494.64(9)
_cell_formula_units_Z            1
_cell_measurement_temperature    200(2)
_cell_measurement_reflns_used    9901
_cell_measurement_theta_min      6.486
_cell_measurement_theta_max      72.172

_exptl_crystal_description       prism
_exptl_crystal_colour            black
_exptl_crystal_density_meas      ?
_exptl_crystal_density_method    ?
_exptl_crystal_density_diffrn    3.622
_exptl_crystal_F_000             458
_exptl_transmission_factor_min   0.018604
_exptl_transmission_factor_max   0.060779
_exptl_crystal_size_max          0.12
_exptl_crystal_size_mid          0.06
_exptl_crystal_size_min          0.04
_exptl_absorpt_coefficient_mu    11.867
_shelx_estimated_absorpt_T_min   ?
_shelx_estimated_absorpt_T_max   ?
_exptl_absorpt_correction_type   multi-scan
_exptl_absorpt_correction_T_min  ?
_exptl_absorpt_correction_T_max  ?
_exptl_absorpt_process_details   
'SAD2ABS-2014/4 - Bruker AXS area detector scaling and absorption correction'
_exptl_absorpt_special_details   ?
_diffrn_ambient_temperature      200(2)
_diffrn_radiation_wavelength     0.71073
_diffrn_radiation_type           MoK\a
_diffrn_source                   ?
_diffrn_measurement_device_type  'Bruker D8 Venture; Photon100 area detector'
_diffrn_measurement_method       ?
_diffrn_detector_area_resol_mean ?
_diffrn_reflns_number            431
_diffrn_reflns_av_unetI/netI     0.0114
_diffrn_reflns_av_R_equivalents  ?
_diffrn_reflns_limit_h_min       0
_diffrn_reflns_limit_h_max       7
_diffrn_reflns_limit_k_min       0
_diffrn_reflns_limit_k_max       11
_diffrn_reflns_limit_l_min       0
_diffrn_reflns_limit_l_max       7
_diffrn_reflns_theta_min         3.244
_diffrn_reflns_theta_max         26.255
_diffrn_reflns_theta_full        25.242
_diffrn_measured_fraction_theta_max 0.970
_diffrn_measured_fraction_theta_full 1.000
_diffrn_reflns_Laue_measured_fraction_max 0.970
_diffrn_reflns_Laue_measured_fraction_full 1.000
_diffrn_reflns_point_group_measured_fraction_max 0.970
_diffrn_reflns_point_group_measured_fraction_full 1.000
_reflns_number_total             431
_reflns_number_gt                406
_reflns_threshold_expression     'I > 2\s(I)'
_reflns_Friedel_coverage         0.000
_reflns_Friedel_fraction_max     .
_reflns_Friedel_fraction_full    .

_reflns_special_details          
;
 _reflns_Friedel_fraction is defined as the number of unique
 Friedel pairs measured divided by the number that would be
 possible theoretically, ignoring centric projections and
 systematic absences. Completness statistics refer to single and
 composite reflections containing twin component 1 only.
;

_computing_data_collection       ?
_computing_cell_refinement       ?
_computing_data_reduction        ?
_computing_structure_solution    ?
_computing_structure_refinement  'SHELXL-2018/3 (Sheldrick, 2018)'
_computing_molecular_graphics    ?
_computing_publication_material  ?
_refine_special_details          
;
 Refined as a 3-component twin.
;
_refine_ls_structure_factor_coef Fsqd
_refine_ls_matrix_type           full
_refine_ls_weighting_scheme      calc
_refine_ls_weighting_details     
'w=1/[\s^2^(Fo^2^)+(0.0251P)^2^+17.2240P] where P=(Fo^2^+2Fc^2^)/3'
_atom_sites_solution_primary     ?
_atom_sites_solution_secondary   ?
_atom_sites_solution_hydrogens   .
_refine_ls_hydrogen_treatment    undef
_refine_ls_extinction_method     none
_refine_ls_extinction_coef       .
_refine_ls_number_reflns         431
_refine_ls_number_parameters     18
_refine_ls_number_restraints     1
_refine_ls_R_factor_all          0.0442
_refine_ls_R_factor_gt           0.0420
_refine_ls_wR_factor_ref         0.1233
_refine_ls_wR_factor_gt          0.1225
_refine_ls_goodness_of_fit_ref   1.474
_refine_ls_restrained_S_all      1.473
_refine_ls_shift/su_max          0.000
_refine_ls_shift/su_mean         0.000

loop_
_atom_site_label
_atom_site_type_symbol
_atom_site_fract_x
_atom_site_fract_y
_atom_site_fract_z
_atom_site_U_iso_or_equiv
_atom_site_adp_type
_atom_site_occupancy
_atom_site_site_symmetry_order
_atom_site_calc_flag
_atom_site_refinement_flags_posn
_atom_site_refinement_flags_adp
_atom_site_refinement_flags_occupancy
_atom_site_disorder_assembly
_atom_site_disorder_group
Sn1 Sn 0.000000 0.000000 0.500000 0.0303(7) Uani 1 8 d S T P . .
I1 I 0.2777(3) 0.2223(3) 0.500000 0.0486(9) Uani 1 4 d S T P . .
I2 I 0.000000 0.000000 0.000000 0.0499(10) Uani 1 8 d S T P . .
N1 N -0.4078(10) 0.0922(10) 0.000000 0.11(2) Uani 1 4 d DS T P . .
C1 C -0.500000 0.000000 0.000000 0.13(4) Uani 1 8 d DS T P . .

loop_
_atom_site_aniso_label
_atom_site_aniso_U_11
_atom_site_aniso_U_22
_atom_site_aniso_U_33
_atom_site_aniso_U_23
_atom_site_aniso_U_13
_atom_site_aniso_U_12
Sn1 0.0321(12) 0.0321(12) 0.0266(17) 0.000 0.000 0.000
I1 0.0424(11) 0.0424(11) 0.0608(17) 0.000 0.000 -0.0166(13)
I2 0.0627(15) 0.0627(15) 0.0243(17) 0.000 0.000 0.000
N1 0.07(2) 0.07(2) 0.19(7) 0.000 0.000 -0.02(3)
C1 0.10(5) 0.10(5) 0.17(13) 0.000 0.000 -0.03(8)

_geom_special_details            
;
 All esds (except the esd in the dihedral angle between two l.s. planes)
 are estimated using the full covariance matrix.  The cell esds are taken
 into account individually in the estimation of esds in distances, angles
 and torsion angles; correlations between esds in cell parameters are only
 used when they are defined by crystal symmetry.  An approximate (isotropic)
 treatment of cell esds is used for estimating esds involving l.s. planes.
;

loop_
_geom_bond_atom_site_label_1
_geom_bond_atom_site_label_2
_geom_bond_distance
_geom_bond_site_symmetry_2
_geom_bond_publ_flag
Sn1 I2 3.1349(3) 1_556 ?
Sn1 I2 3.1349(3) . ?
Sn1 I1 3.1595(4) . ?
Sn1 I1 3.1595(4) 9_556 ?
Sn1 I1 3.1595(4) 3 ?
Sn1 I1 3.1595(4) 11_556 ?
N1 C1 1.158(12) . ?

loop_
_geom_angle_atom_site_label_1
_geom_angle_atom_site_label_2
_geom_angle_atom_site_label_3
_geom_angle
_geom_angle_site_symmetry_1
_geom_angle_site_symmetry_3
_geom_angle_publ_flag
I2 Sn1 I2 180.0 1_556 . ?
I2 Sn1 I1 90.0 1_556 . ?
I2 Sn1 I1 90.0 . . ?
I2 Sn1 I1 90.0 1_556 9_556 ?
I2 Sn1 I1 90.0 . 9_556 ?
I1 Sn1 I1 180.0 . 9_556 ?
I2 Sn1 I1 90.0 1_556 3 ?
I2 Sn1 I1 90.0 . 3 ?
I1 Sn1 I1 90.0 . 3 ?
I1 Sn1 I1 90.0 9_556 3 ?
I2 Sn1 I1 90.0 1_556 11_556 ?
I2 Sn1 I1 90.0 . 11_556 ?
I1 Sn1 I1 90.0 . 11_556 ?
I1 Sn1 I1 90.0 9_556 11_556 ?
I1 Sn1 I1 180.0 3 11_556 ?
Sn1 I1 Sn1 167.37(12) 5_556 . ?
Sn1 I2 Sn1 180.0 1_554 . ?
N1 C1 N1 180.0(12) 9_455 . ?

_refine_diff_density_max         1.422
_refine_diff_density_min         -3.149
_refine_diff_density_rms         0.262

_shelx_res_file                  
;
TITL P4mbm in P4/mbm
    P4mbm.res
    created by SHELXL-2018/3 at 10:32:17 on 18-May-2020
CELL 0.71073   8.88215   8.88215   6.26980  90.0000  90.0000  90.0000
ZERR 1.00000 0.00064 0.00064 0.00060 0.0000 0.0000 0.0000
LATT  1
SYMM -X, -Y, Z
SYMM -Y, X, Z
SYMM Y, -X, Z
SYMM 0.5-X, 0.5+Y, -Z
SYMM 0.5+X, 0.5-Y, -Z
SYMM 0.5+Y, 0.5+X, -Z
SYMM 0.5-Y, 0.5-X, -Z
SFAC C I N Sn
UNIT 2 6 4 2
TEMP -72.680

L.S. 10
BOND
FMAP 2
PLAN 20
SHEL 0.8 9999
DFIX 1.163 0.01 N1 C1
ACTA

WGHT    0.025100   17.224001
BASF   0.16607   0.08896
FVAR       0.29786
SN1   4    0.000000    0.000000    0.500000    10.12500    0.03213    0.03213 =
         0.02660    0.00000    0.00000    0.00000
I1    2    0.277676    0.222324    0.500000    10.25000    0.04244    0.04244 =
         0.06078    0.00000    0.00000   -0.01655
I2    2    0.000000    0.000000    0.000000    10.12500    0.06266    0.06266 =
         0.02430    0.00000    0.00000    0.00000
N1    3   -0.407819    0.092181    0.000000    10.25000    0.07384    0.07384 =
         0.18589    0.00000    0.00000   -0.02098
C1    1   -0.500000    0.000000    0.000000    10.12500    0.10323    0.10323 =
         0.17460    0.00000    0.00000   -0.03025
HKLF 5




REM  P4mbm in P4/mbm
REM wR2 = 0.123284, GooF = S = 1.47449, Restrained GooF = 1.47315 for all data
REM R1 = 0.042028 for 406 Fo > 4sig(Fo) and 0.044233 for all 431 data
REM 18 parameters refined using 1 restraints

END

WGHT      0.0135     17.2246

REM Highest difference peak  1.422,  deepest hole -3.149,  1-sigma level  0.262
Q1    1   0.3239  0.2059  0.5000  10.50000  0.05    1.42
Q2    1   0.3395  0.1605  0.5000  10.25000  0.05    1.37
Q3    1   0.2502  0.2775  0.5992  11.00000  0.05    1.00
Q4    1   0.2861  0.2139  0.3308  10.50000  0.05    0.87
Q5    1  -0.4477  0.0523  0.1737  10.50000  0.05    0.86
Q6    1  -0.5407  0.0407  0.2561  10.50000  0.05    0.85
Q7    1  -0.2987  0.1185  0.0000  10.50000  0.05    0.75
Q8    1  -0.4572  0.0427  0.0000  10.25000  0.05    0.70
Q9    1   0.2114  0.2886  0.7605  10.50000  0.05    0.69
Q10   1   0.3367  0.0503  0.3708  11.00000  0.05    0.65
Q11   1   0.0485  0.1012  0.0000  10.50000  0.05    0.62
Q12   1   0.1819  0.1889  0.5000  10.50000  0.05    0.62
Q13   1   0.0296  0.0952  0.5000  10.50000  0.05    0.61
Q14   1   0.2130  0.0326  0.5000  10.50000  0.05    0.61
Q15   1  -0.3808  0.0506  0.1011  11.00000  0.05    0.61
Q16   1  -0.0207  0.1033  0.2503  11.00000  0.05    0.60
Q17   1   0.0783  0.2049  0.5782  11.00000  0.05    0.60
Q18   1  -0.1447  0.0755  0.5000  10.50000  0.05    0.59
Q19   1  -0.0054  0.0684  0.4123  11.00000  0.05    0.58
Q20   1   0.3692  0.2273  0.2408  11.00000  0.05    0.58
;
_shelx_res_checksum              13053

_shelx_hkl_file                  
;
   0   0   1 1939.86 27.3478  -3
   1   1   0 1939.86 27.3478  -2
   1   1   0 1939.86 27.3478   1
   1   1   0 1903.79 31.0258  -3
   0   0   1 1903.79 31.0258  -2
   1   1   0 1903.79 31.0258   1
   1   1   1 55.9111 1.01777  -3
   1   1   1 55.9111 1.01777  -2
   0   2   0 55.9111 1.01777   1
   1   2   0 193.836 1.15289   1
   2   2   0 9336.65 66.6909  -3
   0   0   2 9336.65 66.6909  -2
   2   2   0 9336.65 66.6909   1
   0   0   2 9167.91 57.4550  -3
   2   2   0 9167.91 57.4550  -2
   2   2   0 9167.91 57.4550   1
   0   3   0 1.40537 0.63084   1
   2   2   1 2189.42 12.1276  -3
   1   1   2 2189.42 12.1276  -2
   1   3   0 2189.42 12.1276   1
   1   1   2 2147.07 12.4984  -3
   2   2   1 2147.07 12.4984  -2
   1   3   0 2147.07 12.4984   1
   2   3   0 202.529 1.34618   1
   3   3   0 693.814 7.07936  -3
   0   0   3 693.814 7.07936  -2
   3   3   0 693.814 7.07936   1
   0   0   3 650.111 5.63790  -3
   3   3   0 650.111 5.63790  -2
   3   3   0 650.111 5.63790   1
   2   2   2 4903.49 40.7068  -3
   2   2   2 4903.49 40.7068  -2
   0   4   0 4903.49 40.7068   1
   1   4   0 584.953 3.11640   1
   1   1   3 64.3161 1.14411  -3
   3   3   1 64.3161 1.14411  -2
   2   4   0 64.3161 1.14411   1
   3   3   1 60.0097 1.35540  -3
   1   1   3 60.0097 1.35540  -2
   2   4   0 60.0097 1.35540   1
   3   4   0 198.650 1.53617   1
   4   4   0 2593.52 20.3634  -3
   0   0   4 2593.52 20.3634  -2
   4   4   0 2593.52 20.3634   1
   0   0   4 2493.94 18.4779  -3
   4   4   0 2493.94 18.4779  -2
   4   4   0 2493.94 18.4779   1
   0   5   0 -0.0288 0.61012   1
   3   3   2 737.739 5.09826  -3
   2   2   3 737.739 5.09826  -2
   1   5   0 737.739 5.09826   1
   2   2   3 703.224 5.28605  -3
   3   3   2 703.224 5.28605  -2
   1   5   0 703.224 5.28605   1
   2   5   0 15.9829 0.65794   1
   1   1   4 1300.10 7.86669  -3
   4   4   1 1300.10 7.86669  -2
   3   5   0 1300.10 7.86669   1
   4   4   1 1348.50 7.94750  -3
   1   1   4 1348.50 7.94750  -2
   3   5   0 1348.50 7.94750   1
   4   5   0 53.8900 1.19555   1
   5   5   0 49.4597 2.89572  -3
   0   0   5 49.4597 2.89572  -2
   5   5   0 49.4597 2.89572   1
   0   0   5 38.6207 2.36196  -3
   5   5   0 38.6207 2.36196  -2
   5   5   0 38.6207 2.36196   1
   3   3   3 96.8193 1.57781  -3
   3   3   3 96.8193 1.57781  -2
   0   6   0 96.8193 1.57781   1
   1   6   0 425.572 3.04471   1
   2   2   4 1556.63 9.08630  -3
   4   4   2 1556.63 9.08630  -2
   2   6   0 1556.63 9.08630   1
   4   4   2 1606.88 10.0893  -3
   2   2   4 1606.88 10.0893  -2
   2   6   0 1606.88 10.0893   1
   3   6   0 215.082 1.87683   1
   5   5   1 67.8638 2.17755  -3
   1   1   5 67.8638 2.17755  -2
   4   6   0 67.8638 2.17755   1
   1   1   5 79.5215 1.80337  -3
   5   5   1 79.5215 1.80337  -2
   4   6   0 79.5215 1.80337   1
   5   6   0 63.4538 1.68260   1
   0   0   6 590.710 7.32360  -3
   6   6   0 590.710 7.32360  -2
   6   6   0 590.710 7.32360   1
   6   6   0 607.387 8.96521  -3
   0   0   6 607.387 8.96521  -2
   6   6   0 607.387 8.96521   1
   0   7   0 0.81282 1.12350   1
   3   3   4 501.510 5.13493  -3
   4   4   3 501.510 5.13493  -2
   1   7   0 501.510 5.13493   1
   4   4   3 504.071 4.58627  -3
   3   3   4 504.071 4.58627  -2
   1   7   0 504.071 4.58627   1
   2   7   0 1.25088 0.98561   1
   5   5   2 69.1488 2.72197  -3
   2   2   5 69.1488 2.72197  -2
   3   7   0 69.1488 2.72197   1
   2   2   5 60.8850 1.85177  -3
   5   5   2 60.8850 1.85177  -2
   3   7   0 60.8850 1.85177   1
   4   7   0 1.96842 1.01956   1
   1   1   6 496.509 4.48859  -3
   6   6   1 496.509 4.48859  -2
   5   7   0 496.509 4.48859   1
   6   6   1 517.218 5.47985  -3
   1   1   6 517.218 5.47985  -2
   5   7   0 517.218 5.47985   1
   6   7   0 -2.1293 1.40318   1
   7   7   0 18.0474 9.36793  -3
   0   0   7 18.0474 9.36793  -2
   7   7   0 18.0474 9.36793   1
   0   0   7 5.02514 5.11968  -3
   7   7   0 5.02514 5.11968  -2
   7   7   0 5.02514 5.11968   1
   4   4   4 491.958 4.64514  -3
   4   4   4 491.958 4.64514  -2
   0   8   0 491.958 4.64514   1
   1   8   0 197.438 2.49027   1
   5   5   3 92.2143 2.92665  -3
   3   3   5 92.2143 2.92665  -2
   2   8   0 92.2143 2.92665   1
   3   3   5 101.677 2.40433  -3
   5   5   3 101.677 2.40433  -2
   2   8   0 101.677 2.40433   1
   3   8   0 134.796 2.09371   1
   6   6   2 388.646 4.83739  -3
   2   2   6 388.646 4.83739  -2
   4   8   0 388.646 4.83739   1
   2   2   6 377.273 3.81236  -3
   6   6   2 377.273 3.81236  -2
   4   8   0 377.273 3.81236   1
   5   8   0 45.5066 1.76858   1
   7   7   1 23.3918 3.38810  -3
   1   1   7 23.3918 3.38810  -2
   6   8   0 23.3918 3.38810   1
   1   1   7 23.9705 2.83381  -3
   7   7   1 23.9705 2.83381  -2
   6   8   0 23.9705 2.83381   1
   7   8   0 9.46157 2.26721   1
   8   8   0 163.743 19.3158  -3
   0   0   8 163.743 19.3158  -2
   8   8   0 163.743 19.3158   1
   0   0   8 117.617 8.76642  -3
   8   8   0 117.617 8.76642  -2
   8   8   0 117.617 8.76642   1
   0   9   0 -2.3376 1.62377   1
   4   4   5 80.7784 3.15723  -3
   5   5   4 80.7784 3.15723  -2
   1   9   0 80.7784 3.15723   1
   5   5   4 86.2900 2.91920  -3
   4   4   5 86.2900 2.91920  -2
   1   9   0 86.2900 2.91920   1
   2   9   0 1.34460 2.01045   1
   6   6   3 222.663 4.58669  -3
   3   3   6 222.663 4.58669  -2
   3   9   0 222.663 4.58669   1
   3   3   6 214.627 4.01482  -3
   6   6   3 214.627 4.01482  -2
   3   9   0 214.627 4.01482   1
   4   9   0 11.0055 1.70998   1
   7   7   2 3.64249 3.79724  -3
   2   2   7 3.64249 3.79724  -2
   5   9   0 3.64249 3.79724   1
   2   2   7 10.1813 2.47052  -3
   7   7   2 10.1813 2.47052  -2
   5   9   0 10.1813 2.47052   1
   1   1   8 134.004 6.14453  -3
   8   8   1 134.004 6.14453  -2
   7   9   0 134.004 6.14453   1
   8   9   0 20.5424 5.74146   1
   5   5   5 83.3023 2.86532  -3
   5   5   5 83.3023 2.86532  -2
   0  10   0 83.3023 2.86532   1
   1  10   0 87.0022 2.86724   1
   6   6   4 118.354 4.46612  -3
   4   4   6 118.354 4.46612  -2
   2  10   0 118.354 4.46612   1
   4   4   6 113.926 5.25956  -3
   6   6   4 113.926 5.25956  -2
   2  10   0 113.926 5.25956   1
   3  10   0 66.1550 2.47567   1
   7   7   3 35.1841 6.53840  -3
   3   3   7 35.1841 6.53840  -2
   4  10   0 35.1841 6.53840   1
   3   3   7 114.924 15.1572  -3
   7   7   3 114.924 15.1572  -2
   4  10   0 114.924 15.1572   1
   5  10   0 34.3528 2.77561   1
   8   8   2 123.330 20.2111  -3
   2   2   8 123.330 20.2111  -2
   6  10   0 123.330 20.2111   1
   7  10   0 20.0940 4.42967   1
   0  11   0 401.887 18.0161   1
   5   5   6 226.765 21.3812  -3
   6   6   5 226.765 21.3812  -2
   1  11   0 226.765 21.3812   1
   2  11   0 9.87775 3.05976   1
   7   7   4 6.55750 5.82588  -3
   4   4   7 6.55750 5.82588  -2
   3  11   0 6.55750 5.82588   1
   4  11   0 7.80896 3.73283   1
   8   8   3 86.1042 9.55597  -3
   3   3   8 86.1042 9.55597  -2
   5  11   0 86.1042 9.55597   1
   3   3   8 96.2353 15.6875  -3
   8   8   3 96.2353 15.6875  -2
   5  11   0 96.2353 15.6875   1
   6  11   0 18.0324 5.40017   1
   1  12   0 40.1181 10.8475   1
   5   5   7 56.7309 14.3022  -3
   7   7   5 56.7309 14.3022  -2
   2  12   0 56.7309 14.3022   1
   7   7   5 23.8999 6.99237  -3
   5   5   7 23.8999 6.99237  -2
   2  12   0 23.8999 6.99237   1
   3  12   0 52.7384 16.4172   1
   8   8   4 50.5274 11.0264  -3
   4   4   8 50.5274 11.0264  -2
   4  12   0 50.5274 11.0264   1
   4   4   8 21.4617 10.2395  -3
   8   8   4 21.4617 10.2395  -2
   4  12   0 21.4617 10.2395   1
   1   1   0 2016.14 31.4841  -3
   1   1   0 2016.14 31.4841  -2
   0   0   1 2016.14 31.4841   1
   0   1   1 0.39208 0.28258   1
   1   1   1 30.5955 0.73300  -3
   0   2   0 30.5955 0.73300  -2
   1   1   1 30.5955 0.73300   1
   0   2   0 27.9256 0.75548  -3
   1   1   1 27.9256 0.75548  -2
   1   1   1 27.9256 0.75548   1
   0   2   1 2964.08 10.6009  -3
   0   2   1 2964.08 10.6009  -2
   0   2   1 2964.08 10.6009   1
   1   2   1 329.874 1.11289   1
   1   3   0 1654.45 8.28016  -3
   1   1   2 1654.45 8.28016  -2
   2   2   1 1654.45 8.28016   1
   1   1   2 1687.98 8.13168  -3
   1   3   0 1687.98 8.13168  -2
   2   2   1 1687.98 8.13168   1
   0   3   1 0.44728 0.39708   1
   1   3   1 46.9849 0.73192  -3
   0   2   2 46.9849 0.73192  -2
   1   3   1 46.9849 0.73192   1
   0   2   2 45.9877 0.64701  -3
   1   3   1 45.9877 0.64701  -2
   1   3   1 45.9877 0.64701   1
   2   3   1 53.3361 0.62485   1
   1   1   3 69.7112 0.97311  -3
   2   4   0 69.7112 0.97311  -2
   3   3   1 69.7112 0.97311   1
   2   4   0 64.7402 1.49202  -3
   1   1   3 64.7402 1.49202  -2
   3   3   1 64.7402 1.49202   1
   1   3   2 1240.39 6.22406  -3
   1   3   2 1240.39 6.22406  -2
   0   4   1 1240.39 6.22406   1
   1   4   1 420.153 1.59366   1
   0   2   3 679.306 3.14585  -3
   2   4   1 679.306 3.14585  -2
   2   4   1 679.306 3.14585   1
   2   4   1 724.145 3.27626  -3
   0   2   3 724.145 3.27626  -2
   2   4   1 724.145 3.27626   1
   3   4   1 266.334 1.28573   1
   3   5   0 608.405 4.44873  -3
   1   1   4 608.405 4.44873  -2
   4   4   1 608.405 4.44873   1
   1   1   4 648.289 3.92021  -3
   3   5   0 648.289 3.92021  -2
   4   4   1 648.289 3.92021   1
   0   5   1 0.22830 0.53842   1
   1   3   3 23.2001 0.83524  -3
   2   4   2 23.2001 0.83524  -2
   1   5   1 23.2001 0.83524   1
   2   4   2 18.6566 0.86391  -3
   1   3   3 18.6566 0.86391  -2
   1   5   1 18.6566 0.86391   1
   2   5   1 22.1454 0.55611   1
   0   2   4 224.314 1.65736  -3
   3   5   1 224.314 1.65736  -2
   3   5   1 224.314 1.65736   1
   3   5   1 215.345 1.76254  -3
   0   2   4 215.345 1.76254  -2
   3   5   1 215.345 1.76254   1
   4   5   1 44.9063 0.80318   1
   1   1   5 83.4089 1.90907  -3
   4   6   0 83.4089 1.90907  -2
   5   5   1 83.4089 1.90907   1
   4   6   0 80.5145 2.23506  -3
   1   1   5 80.5145 2.23506  -2
   5   5   1 80.5145 2.23506   1
   2   4   3 150.506 1.47129  -3
   2   4   3 150.506 1.47129  -2
   0   6   1 150.506 1.47129   1
   1   6   1 383.053 1.93987   1
   1   3   4 455.593 2.57003  -3
   3   5   2 455.593 2.57003  -2
   2   6   1 455.593 2.57003   1
   3   5   2 440.269 2.73884  -3
   1   3   4 440.269 2.73884  -2
   2   6   1 440.269 2.73884   1
   3   6   1 209.585 1.39107   1
   4   6   1 105.687 1.69887  -3
   0   2   5 105.687 1.69887  -2
   4   6   1 105.687 1.69887   1
   0   2   5 93.5364 1.35044  -3
   4   6   1 93.5364 1.35044  -2
   4   6   1 93.5364 1.35044   1
   5   6   1 52.4458 1.07630   1
   5   7   0 198.084 4.25559  -3
   1   1   6 198.084 4.25559  -2
   6   6   1 198.084 4.25559   1
   1   1   6 214.751 3.21484  -3
   5   7   0 214.751 3.21484  -2
   6   6   1 214.751 3.21484   1
   0   7   1 1.04699 1.00327   1
   3   5   3 57.6604 1.49265  -3
   2   4   4 57.6604 1.49265  -2
   1   7   1 57.6604 1.49265   1
   2   4   4 58.5675 1.63452  -3
   3   5   3 58.5675 1.63452  -2
   1   7   1 58.5675 1.63452   1
   2   7   1 0.88319 0.78606   1
   4   6   2 34.6870 1.50198  -3
   1   3   5 34.6870 1.50198  -2
   3   7   1 34.6870 1.50198   1
   1   3   5 36.3213 1.15794  -3
   4   6   2 36.3213 1.15794  -2
   3   7   1 36.3213 1.15794   1
   4   7   1 -0.0697 0.85229   1
   5   7   1 190.443 2.64075  -3
   0   2   6 190.443 2.64075  -2
   5   7   1 190.443 2.64075   1
   0   2   6 204.621 2.38451  -3
   5   7   1 204.621 2.38451  -2
   5   7   1 204.621 2.38451   1
   6   7   1 1.30660 1.08650   1
   1   1   7 41.7217 3.63151  -3
   6   8   0 41.7217 3.63151  -2
   7   7   1 41.7217 3.63151   1
   6   8   0 40.9974 4.81269  -3
   1   1   7 40.9974 4.81269  -2
   7   7   1 40.9974 4.81269   1
   3   5   4 180.340 1.95450  -3
   3   5   4 180.340 1.95450  -2
   0   8   1 180.340 1.95450   1
   1   8   1 194.650 2.07761   1
   4   6   3 19.5678 1.89260  -3
   2   4   5 19.5678 1.89260  -2
   2   8   1 19.5678 1.89260   1
   2   4   5 12.7285 1.48277  -3
   4   6   3 12.7285 1.48277  -2
   2   8   1 12.7285 1.48277   1
   3   8   1 107.084 1.51389   1
   1   3   6 152.386 2.03750  -3
   5   7   2 152.386 2.03750  -2
   4   8   1 152.386 2.03750   1
   5   7   2 139.089 2.75140  -3
   1   3   6 139.089 2.75140  -2
   4   8   1 139.089 2.75140   1
   5   8   1 48.0501 1.34909   1
   0   2   7 10.9031 2.44114  -3
   6   8   1 10.9031 2.44114  -2
   6   8   1 10.9031 2.44114   1
   6   8   1 16.8349 2.41319  -3
   0   2   7 16.8349 2.41319  -2
   6   8   1 16.8349 2.41319   1
   7   8   1 23.6088 11.7636   1
   1   1   8 90.9503 7.98835  -3
   7   9   0 90.9503 7.98835  -2
   8   8   1 90.9503 7.98835   1
   7   9   0 59.1945 9.24139  -3
   1   1   8 59.1945 9.24139  -2
   8   8   1 59.1945 9.24139   1
   0   9   1 0.82365 1.20960   1
   3   5   5 15.2365 1.68152  -3
   4   6   4 15.2365 1.68152  -2
   1   9   1 15.2365 1.68152   1
   4   6   4 13.3189 1.77327  -3
   3   5   5 13.3189 1.77327  -2
   1   9   1 13.3189 1.77327   1
   2   9   1 6.26746 1.26659   1
   2   4   6 75.6800 2.02816  -3
   5   7   3 75.6800 2.02816  -2
   3   9   1 75.6800 2.02816   1
   5   7   3 77.2567 2.85100  -3
   2   4   6 77.2567 2.85100  -2
   3   9   1 77.2567 2.85100   1
   4   9   1 7.79701 1.29195   1
   1   3   7 16.9094 2.00354  -3
   6   8   2 16.9094 2.00354  -2
   5   9   1 16.9094 2.00354   1
   6   8   2 19.9881 3.12442  -3
   1   3   7 19.9881 3.12442  -2
   5   9   1 19.9881 3.12442   1
   0   2   8 78.9984 4.87303  -3
   7   9   1 78.9984 4.87303  -2
   7   9   1 78.9984 4.87303   1
   8   9   1 1.64733 3.48665   1
   4   6   5 13.1660 2.34068  -3
   4   6   5 13.1660 2.34068  -2
   0  10   1 13.1660 2.34068   1
   1  10   1 87.0512 1.85090   1
   5   7   4 67.7399 2.77535  -3
   3   5   6 67.7399 2.77535  -2
   2  10   1 67.7399 2.77535   1
   3   5   6 71.8167 2.50436  -3
   5   7   4 71.8167 2.50436  -2
   2  10   1 71.8167 2.50436   1
   3  10   1 64.6483 2.04507   1
   5  10   1 31.5905 2.20785   1
   1   3   8 58.7801 4.11618  -3
   7   9   2 58.7801 4.11618  -2
   6  10   1 58.7801 4.11618   1
   7  10   1 19.7899 3.81573   1
   0  11   1 227.407 23.3270   1
   5   7   5 30.6968 3.05051  -3
   4   6   6 30.6968 3.05051  -2
   1  11   1 30.6968 3.05051   1
   6   8   4 13.4186 5.12658  -3
   3   5   7 13.4186 5.12658  -2
   3  11   1 13.4186 5.12658   1
   4  11   1 10.0209 3.77586   1
   7   9   3 33.9828 6.23847  -3
   2   4   8 33.9828 6.23847  -2
   5  11   1 33.9828 6.23847   1
   2   4   8 60.6212 8.10883  -3
   7   9   3 60.6212 8.10883  -2
   5  11   1 60.6212 8.10883   1
   6  11   1 16.6120 4.21614   1
   1  12   1 30.9866 4.11816   1
   6   8   5 23.9311 5.31065  -3
   4   6   7 23.9311 5.31065  -2
   2  12   1 23.9311 5.31065   1
   4   6   7 37.4031 9.18557  -3
   6   8   5 37.4031 9.18557  -2
   2  12   1 37.4031 9.18557   1
   3  12   1 38.4534 5.40199   1
   2   2   0 9999.99 70.9046  -3
   2   2   0 9999.99 70.9046  -2
   0   0   2 9999.99 70.9046   1
   0   1   2 0.06898 0.50191   1
   1   3   0 1756.34 8.99443  -3
   2   2   1 1756.34 8.99443  -2
   1   1   2 1756.34 8.99443   1
   2   2   1 1822.09 9.05763  -3
   1   3   0 1822.09 9.05763  -2
   1   1   2 1822.09 9.05763   1
   1   3   1 51.4790 0.76615  -3
   1   3   1 51.4790 0.76615  -2
   0   2   2 51.4790 0.76615   1
   1   2   2 133.935 0.84813   1
   0   4   0 5530.91 31.2629  -3
   2   2   2 5530.91 31.2629  -2
   2   2   2 5530.91 31.2629   1
   2   2   2 5374.43 28.4746  -3
   0   4   0 5374.43 28.4746  -2
   2   2   2 5374.43 28.4746   1
   0   3   2 -0.4056 0.50569   1
   0   4   1 1774.00 7.05369  -3
   1   3   2 1774.00 7.05369  -2
   1   3   2 1774.00 7.05369   1
   1   3   2 1689.97 7.15570  -3
   0   4   1 1689.97 7.15570  -2
   1   3   2 1689.97 7.15570   1
   2   3   2 105.997 0.85393   1
   2   2   3 575.938 3.89456  -3
   1   5   0 575.938 3.89456  -2
   3   3   2 575.938 3.89456   1
   1   5   0 570.137 4.03157  -3
   2   2   3 570.137 4.03157  -2
   3   3   2 570.137 4.03157   1
   0   4   2 3435.06 12.9522  -3
   0   4   2 3435.06 12.9522  -2
   0   4   2 3435.06 12.9522   1
   1   4   2 376.257 1.48745   1
   1   5   1 64.7058 1.10698  -3
   1   3   3 64.7058 1.10698  -2
   2   4   2 64.7058 1.10698   1
   1   3   3 64.0797 0.88839  -3
   1   5   1 64.0797 0.88839  -2
   2   4   2 64.0797 0.88839   1
   3   4   2 144.670 1.05331   1
   2   2   4 1776.43 8.91668  -3
   2   6   0 1776.43 8.91668  -2
   4   4   2 1776.43 8.91668   1
   2   6   0 1857.34 10.3085  -3
   2   2   4 1857.34 10.3085  -2
   4   4   2 1857.34 10.3085   1
   0   5   2 0.56922 0.67105   1
   0   4   3 592.972 3.01463  -3
   1   5   2 592.972 3.01463  -2
   1   5   2 592.972 3.01463   1
   1   5   2 583.074 2.95069  -3
   0   4   3 583.074 2.95069  -2
   1   5   2 583.074 2.95069   1
   2   5   2 12.1438 0.58556   1
   2   6   1 1085.62 4.76682  -3
   1   3   4 1085.62 4.76682  -2
   3   5   2 1085.62 4.76682   1
   1   3   4 1003.72 4.51525  -3
   2   6   1 1003.72 4.51525  -2
   3   5   2 1003.72 4.51525   1
   4   5   2 34.0991 0.79764   1
   3   7   0 54.7789 2.42364  -3
   2   2   5 54.7789 2.42364  -2
   5   5   2 54.7789 2.42364   1
   2   2   5 45.3710 1.85095  -3
   3   7   0 45.3710 1.85095  -2
   5   5   2 45.3710 1.85095   1
   1   5   3 92.9031 1.30930  -3
   1   5   3 92.9031 1.30930  -2
   0   6   2 92.9031 1.30930   1
   1   6   2 296.702 1.63408   1
   0   4   4 1107.36 4.79832  -3
   2   6   2 1107.36 4.79832  -2
   2   6   2 1107.36 4.79832   1
   2   6   2 1168.08 5.12436  -3
   0   4   4 1168.08 5.12436  -2
   2   6   2 1168.08 5.12436   1
   3   6   2 148.806 1.33768   1
   3   7   1 68.6107 1.74255  -3
   1   3   5 68.6107 1.74255  -2
   4   6   2 68.6107 1.74255   1
   1   3   5 65.0955 1.53577  -3
   3   7   1 65.0955 1.53577  -2
   4   6   2 65.0955 1.53577   1
   5   6   2 50.1476 1.23041   1
   2   2   6 439.284 5.27787  -3
   4   8   0 439.284 5.27787  -2
   6   6   2 439.284 5.27787   1
   4   8   0 493.264 5.76734  -3
   2   2   6 493.264 5.76734  -2
   6   6   2 493.264 5.76734   1
   0   7   2 -1.3358 1.02914   1
   1   5   4 398.640 2.90616  -3
   2   6   3 398.640 2.90616  -2
   1   7   2 398.640 2.90616   1
   2   6   3 420.766 3.01415  -3
   1   5   4 420.766 3.01415  -2
   1   7   2 420.766 3.01415   1
   2   7   2 0.84083 0.77284   1
   3   7   2 68.1369 1.74885  -3
   0   4   5 68.1369 1.74885  -2
   3   7   2 68.1369 1.74885   1
   0   4   5 62.8690 1.78012  -3
   3   7   2 62.8690 1.78012  -2
   3   7   2 62.8690 1.78012   1
   4   7   2 0.79769 0.94832   1
   1   3   6 410.228 3.48198  -3
   4   8   1 410.228 3.48198  -2
   5   7   2 410.228 3.48198   1
   4   8   1 432.802 3.58902  -3
   1   3   6 432.802 3.58902  -2
   5   7   2 432.802 3.58902   1
   6   7   2 0.56614 1.35190   1
   2   2   7 9.49955 3.40183  -3
   5   9   0 9.49955 3.40183  -2
   7   7   2 9.49955 3.40183   1
   5   9   0 13.5761 4.43556  -3
   2   2   7 13.5761 4.43556  -2
   7   7   2 13.5761 4.43556   1
   2   6   4 366.839 3.07061  -3
   2   6   4 366.839 3.07061  -2
   0   8   2 366.839 3.07061   1
   1   8   2 142.768 1.69774   1
   1   5   5 81.7814 1.81526  -3
   3   7   3 81.7814 1.81526  -2
   2   8   2 81.7814 1.81526   1
   3   7   3 85.3505 2.06802  -3
   1   5   5 85.3505 2.06802  -2
   2   8   2 85.3505 2.06802   1
   3   8   2 103.446 1.75025   1
   0   4   6 279.437 2.77819  -3
   4   8   2 279.437 2.77819  -2
   4   8   2 279.437 2.77819   1
   4   8   2 291.187 3.66878  -3
   0   4   6 291.187 3.66878  -2
   4   8   2 291.187 3.66878   1
   5   8   2 33.6643 1.52281   1
   1   3   7 15.3207 2.69894  -3
   5   9   1 15.3207 2.69894  -2
   6   8   2 15.3207 2.69894   1
   5   9   1 24.1923 3.32590  -3
   1   3   7 24.1923 3.32590  -2
   6   8   2 24.1923 3.32590   1
   2   2   8 133.365 9.97404  -3
   6  10   0 133.365 9.97404  -2
   8   8   2 133.365 9.97404   1
   6  10   0 149.188 10.6318  -3
   2   2   8 149.188 10.6318  -2
   8   8   2 149.188 10.6318   1
   0   9   2 -0.0247 1.57231   1
   2   6   5 76.3769 2.45120  -3
   3   7   4 76.3769 2.45120  -2
   1   9   2 76.3769 2.45120   1
   3   7   4 70.9471 2.28469  -3
   2   6   5 70.9471 2.28469  -2
   1   9   2 70.9471 2.28469   1
   2   9   2 2.65757 1.37075   1
   4   8   3 195.131 3.62009  -3
   1   5   6 195.131 3.62009  -2
   3   9   2 195.131 3.62009   1
   1   5   6 173.082 2.47571  -3
   4   8   3 173.082 2.47571  -2
   3   9   2 173.082 2.47571   1
   4   9   2 8.05805 1.44922   1
   5   9   2 15.2118 4.97466  -3
   0   4   7 15.2118 4.97466  -2
   5   9   2 15.2118 4.97466   1
   0   4   7 15.2529 5.68069  -3
   5   9   2 15.2529 5.68069  -2
   5   9   2 15.2529 5.68069   1
   6  10   1 135.208 8.31502  -3
   1   3   8 135.208 8.31502  -2
   7   9   2 135.208 8.31502   1
   1   3   8 119.042 6.10401  -3
   6  10   1 119.042 6.10401  -2
   7   9   2 119.042 6.10401   1
   8   9   2 10.6666 4.70775   1
   3   7   5 73.9549 2.36103  -3
   3   7   5 73.9549 2.36103  -2
   0  10   2 73.9549 2.36103   1
   1  10   2 71.6087 1.98145   1
   4   8   4 100.993 3.19179  -3
   2   6   6 100.993 3.19179  -2
   2  10   2 100.993 3.19179   1
   2   6   6 88.0441 4.07173  -3
   4   8   4 88.0441 4.07173  -2
   2  10   2 88.0441 4.07173   1
   2   6   6 82.7432 6.05599  -3
   2  10   2 82.7432 6.05599   1
   3  10   2 48.5113 2.14053   1
   5   9   3 200.533 21.2768  -3
   1   5   7 200.533 21.2768  -2
   4  10   2 200.533 21.2768   1
   5  10   2 16.5380 2.30494   1
   6  10   2 90.9662 8.95199  -3
   0   4   8 90.9662 8.95199  -2
   6  10   2 90.9662 8.95199   1
   0   4   8 79.4840 5.64315  -3
   6  10   2 79.4840 5.64315  -2
   6  10   2 79.4840 5.64315   1
   7  10   2 15.5830 7.11413   1
   4   8   5 59.1332 3.54153  -3
   3   7   6 59.1332 3.54153  -2
   1  11   2 59.1332 3.54153   1
   3   7   6 292.865 17.2125  -3
   4   8   5 292.865 17.2125  -2
   1  11   2 292.865 17.2125   1
   2   6   7 12.1578 6.53102  -3
   5   9   4 12.1578 6.53102  -2
   3  11   2 12.1578 6.53102   1
   5   9   4 17.7396 6.17812  -3
   2   6   7 17.7396 6.17812  -2
   3  11   2 17.7396 6.17812   1
   4  11   2 19.0366 3.24953   1
   1   5   8 66.2145 7.30080  -3
   6  10   3 66.2145 7.30080  -2
   5  11   2 66.2145 7.30080   1
   6  10   3 61.8181 6.80105  -3
   1   5   8 61.8181 6.80105  -2
   5  11   2 61.8181 6.80105   1
   4   8   6 80.6249 13.3367  -3
   4   8   6 80.6249 13.3367  -2
   0  12   2 80.6249 13.3367   1
   1  12   2 32.3125 4.25500   1
   3   7   7 28.0035 6.44588  -3
   5   9   5 28.0035 6.44588  -2
   2  12   2 28.0035 6.44588   1
   5   9   5 37.1764 5.41029  -3
   3   7   7 37.1764 5.41029  -2
   2  12   2 37.1764 5.41029   1
   3  12   2 33.0583 8.71147   1
   3   3   0 912.596 8.35146  -3
   3   3   0 912.596 8.35146  -2
   0   0   3 912.596 8.35146   1
   0   1   3 0.10061 0.60819   1
   3   3   1 20.5488 1.36194  -3
   2   4   0 20.5488 1.36194  -2
   1   1   3 20.5488 1.36194   1
   2   4   0 20.1930 1.32894  -3
   3   3   1 20.1930 1.32894  -2
   1   1   3 20.1930 1.32894   1
   2   4   1 958.728 4.10926  -3
   2   4   1 958.728 4.10926  -2
   0   2   3 958.728 4.10926   1
   1   2   3 112.661 0.96930   1
   3   3   2 684.422 4.67288  -3
   1   5   0 684.422 4.67288  -2
   2   2   3 684.422 4.67288   1
   1   5   0 668.814 4.85557  -3
   3   3   2 668.814 4.85557  -2
   2   2   3 668.814 4.85557   1
   0   3   3 -0.3081 0.68257   1
   2   4   2 18.9262 0.83272  -3
   1   5   1 18.9262 0.83272  -2
   1   3   3 18.9262 0.83272   1
   1   5   1 25.7322 0.95714  -3
   2   4   2 25.7322 0.95714  -2
   1   3   3 25.7322 0.95714   1
   2   3   3 39.6905 0.73255   1
   3   3   3 56.7221 1.62917  -3
   0   6   0 56.7221 1.62917  -2
   3   3   3 56.7221 1.62917   1
   0   6   0 50.4018 1.64653  -3
   3   3   3 50.4018 1.64653  -2
   3   3   3 50.4018 1.64653   1
   1   5   2 478.847 2.52372  -3
   1   5   2 478.847 2.52372  -2
   0   4   3 478.847 2.52372   1
   1   4   3 206.801 1.26818   1
   2   4   3 248.911 1.70945  -3
   0   6   1 248.911 1.70945  -2
   2   4   3 248.911 1.70945   1
   0   6   1 267.775 1.94080  -3
   2   4   3 267.775 1.94080  -2
   2   4   3 267.775 1.94080   1
   3   4   3 111.902 1.13112   1
   3   3   4 278.687 2.63847  -3
   1   7   0 278.687 2.63847  -2
   4   4   3 278.687 2.63847   1
   1   7   0 262.737 3.17470  -3
   3   3   4 262.737 3.17470  -2
   4   4   3 262.737 3.17470   1
   0   5   3 0.33336 0.79496   1
   1   5   3 25.3829 1.15344  -3
   0   6   2 25.3829 1.15344  -2
   1   5   3 25.3829 1.15344   1
   0   6   2 14.7818 1.05585  -3
   1   5   3 14.7818 1.05585  -2
   1   5   3 14.7818 1.05585   1
   2   5   3 7.82444 0.64673   1
   1   7   1 108.894 1.69099  -3
   2   4   4 108.894 1.69099  -2
   3   5   3 108.894 1.69099   1
   2   4   4 103.583 1.48095  -3
   1   7   1 103.583 1.48095  -2
   3   5   3 103.583 1.48095   1
   4   5   3 23.4414 0.85846   1
   2   8   0 52.3514 2.99942  -3
   3   3   5 52.3514 2.99942  -2
   5   5   3 52.3514 2.99942   1
   3   3   5 59.9098 2.68707  -3
   2   8   0 59.9098 2.68707  -2
   5   5   3 59.9098 2.68707   1
   0   6   3 50.3423 1.46333  -3
   0   6   3 50.3423 1.46333  -2
   0   6   3 50.3423 1.46333   1
   1   6   3 184.575 1.51447   1
   1   7   2 184.393 1.92128  -3
   1   5   4 184.393 1.92128  -2
   2   6   3 184.393 1.92128   1
   1   5   4 195.863 1.94499  -3
   1   7   2 195.863 1.94499  -2
   2   6   3 195.863 1.94499   1
   3   6   3 110.391 1.46389   1
   2   4   5 31.6781 1.66268  -3
   2   8   1 31.6781 1.66268  -2
   4   6   3 31.6781 1.66268   1
   2   8   1 38.5169 2.01955  -3
   2   4   5 38.5169 2.01955  -2
   4   6   3 38.5169 2.01955   1
   5   6   3 25.3096 1.19380   1
   3   9   0 99.9878 4.39600  -3
   3   3   6 99.9878 4.39600  -2
   6   6   3 99.9878 4.39600   1
   3   3   6 103.155 2.92432  -3
   3   9   0 103.155 2.92432  -2
   6   6   3 103.155 2.92432   1
   0   7   3 0.35043 1.27661   1
   0   6   4 29.3647 1.65634  -3
   1   7   3 29.3647 1.65634  -2
   1   7   3 29.3647 1.65634   1
   1   7   3 40.8789 1.83949  -3
   0   6   4 40.8789 1.83949  -2
   1   7   3 40.8789 1.83949   1
   2   7   3 -0.9903 0.86531   1
   2   8   2 22.3534 2.02764  -3
   1   5   5 22.3534 2.02764  -2
   3   7   3 22.3534 2.02764   1
   1   5   5 29.5768 1.83999  -3
   2   8   2 29.5768 1.83999  -2
   3   7   3 29.5768 1.83999   1
   4   7   3 -0.0530 1.13090   1
   2   4   6 106.134 2.44366  -3
   3   9   1 106.134 2.44366  -2
   5   7   3 106.134 2.44366   1
   3   9   1 113.112 2.86455  -3
   2   4   6 113.112 2.86455  -2
   5   7   3 113.112 2.86455   1
   6   7   3 0.70530 1.46099   1
   4  10   0 23.4109 6.21071  -3
   3   3   7 23.4109 6.21071  -2
   7   7   3 23.4109 6.21071   1
   1   7   4 79.2198 2.21146  -3
   1   7   4 79.2198 2.21146  -2
   0   8   3 79.2198 2.21146   1
   1   8   3 109.311 1.96242   1
   2   8   3 4.76802 2.38621  -3
   0   6   5 4.76802 2.38621  -2
   2   8   3 4.76802 2.38621   1
   0   6   5 6.11210 2.09944  -3
   2   8   3 6.11210 2.09944  -2
   2   8   3 6.11210 2.09944   1
   3   8   3 74.2528 1.65648   1
   3   9   2 69.9368 2.64302  -3
   1   5   6 69.9368 2.64302  -2
   4   8   3 69.9368 2.64302   1
   1   5   6 71.7761 2.62493  -3
   3   9   2 71.7761 2.62493  -2
   4   8   3 71.7761 2.62493   1
   5   8   3 28.6637 1.54129   1
   4  10   1 18.6032 5.08204  -3
   2   4   7 18.6032 5.08204  -2
   6   8   3 18.6032 5.08204   1
   2   4   7 130.691 12.8874  -3
   4  10   1 130.691 12.8874  -2
   6   8   3 130.691 12.8874   1
   7   8   3 3.59631 3.02385   1
   3   3   8 35.3128 8.11615  -3
   5  11   0 35.3128 8.11615  -2
   8   8   3 35.3128 8.11615   1
   5  11   0 51.7052 10.0655  -3
   3   3   8 51.7052 10.0655  -2
   8   8   3 51.7052 10.0655   1
   0   9   3 -1.1656 1.78135   1
   2   8   4 13.1822 2.85176  -3
   1   7   5 13.1822 2.85176  -2
   1   9   3 13.1822 2.85176   1
   1   7   5 11.8194 2.23148  -3
   2   8   4 11.8194 2.23148  -2
   1   9   3 11.8194 2.23148   1
   2   9   3 3.09197 1.42473   1
   3   9   3 55.5217 3.02240  -3
   0   6   6 55.5217 3.02240  -2
   3   9   3 55.5217 3.02240   1
   0   6   6 47.6217 2.51143  -3
   3   9   3 47.6217 2.51143  -2
   3   9   3 47.6217 2.51143   1
   4   9   3 7.25613 1.98072   1
   1   5   7 29.1615 4.85719  -3
   4  10   2 29.1615 4.85719  -2
   5   9   3 29.1615 4.85719   1
   5  11   1 49.2733 8.36754  -3
   2   4   8 49.2733 8.36754  -2
   7   9   3 49.2733 8.36754   1
   1  10   3 50.4834 2.08010   1
   1   7   6 125.346 17.9674  -3
   3   9   4 125.346 17.9674  -2
   2  10   3 125.346 17.9674   1
   3  10   3 44.3712 2.38684   1
   4  10   3 13.3716 6.92272  -3
   0   6   7 13.3716 6.92272  -2
   4  10   3 13.3716 6.92272   1
   0   6   7 18.6782 4.57997  -3
   4  10   3 18.6782 4.57997  -2
   4  10   3 18.6782 4.57997   1
   5  10   3 24.2807 2.93254   1
   5  11   2 31.4297 8.37045  -3
   1   5   8 31.4297 8.37045  -2
   6  10   3 31.4297 8.37045   1
   1   5   8 215.896 22.4857  -3
   5  11   2 215.896 22.4857  -2
   6  10   3 215.896 22.4857   1
   3   9   5 16.5770 5.32801  -3
   2   8   6 16.5770 5.32801  -2
   1  11   3 16.5770 5.32801   1
   2   8   6 17.6044 8.02529  -3
   3   9   5 17.6044 8.02529  -2
   1  11   3 17.6044 8.02529   1
   2  11   3 9.00789 3.56678   1
   1   7   7 33.5576 7.67903  -3
   4  10   4 33.5576 7.67903  -2
   3  11   3 33.5576 7.67903   1
   4  10   4 46.0526 9.21249  -3
   1   7   7 46.0526 9.21249  -2
   3  11   3 46.0526 9.21249   1
   4  11   3 70.3571 26.6456   1
   4   4   0 3252.93 22.3415  -3
   4   4   0 3252.93 22.3415  -2
   0   0   4 3252.93 22.3415   1
   0   1   4 -0.8508 0.80285   1
   3   5   0 876.409 6.15041  -3
   4   4   1 876.409 6.15041  -2
   1   1   4 876.409 6.15041   1
   4   4   1 950.888 6.05385  -3
   3   5   0 950.888 6.05385  -2
   1   1   4 950.888 6.05385   1
   3   5   1 126.581 1.54246  -3
   3   5   1 126.581 1.54246  -2
   0   2   4 126.581 1.54246   1
   1   2   4 53.2302 0.93951   1
   4   4   2 2086.67 11.3603  -3
   2   6   0 2086.67 11.3603  -2
   2   2   4 2086.67 11.3603   1
   2   6   0 2155.04 12.1369  -3
   4   4   2 2155.04 12.1369  -2
   2   2   4 2155.04 12.1369   1
   0   3   4 -0.4119 0.85823   1
   3   5   2 804.291 3.81595  -3
   2   6   1 804.291 3.81595  -2
   1   3   4 804.291 3.81595   1
   2   6   1 884.200 4.17498  -3
   3   5   2 884.200 4.17498  -2
   1   3   4 884.200 4.17498   1
   2   3   4 32.2364 0.85598   1
   4   4   3 349.325 3.57886  -3
   1   7   0 349.325 3.57886  -2
   3   3   4 349.325 3.57886   1
   1   7   0 325.283 3.50372  -3
   4   4   3 325.283 3.50372  -2
   3   3   4 325.283 3.50372   1
   2   6   2 1387.76 5.65610  -3
   2   6   2 1387.76 5.65610  -2
   0   4   4 1387.76 5.65610   1
   1   4   4 120.750 1.30062   1
   1   7   1 97.0683 1.64688  -3
   3   5   3 97.0683 1.64688  -2
   2   4   4 97.0683 1.64688   1
   3   5   3 92.9673 1.39273  -3
   1   7   1 92.9673 1.39273  -2
   2   4   4 92.9673 1.39273   1
   3   4   4 62.1081 1.06605   1
   4   4   4 734.880 4.93345  -3
   0   8   0 734.880 4.93345  -2
   4   4   4 734.880 4.93345   1
   0   8   0 793.414 6.02236  -3
   4   4   4 793.414 6.02236  -2
   4   4   4 793.414 6.02236   1
   0   5   4 1.49901 1.04903   1
   2   6   3 329.737 2.45022  -3
   1   7   2 329.737 2.45022  -2
   1   5   4 329.737 2.45022   1
   1   7   2 307.797 2.38984  -3
   2   6   3 307.797 2.38984  -2
   1   5   4 307.797 2.38984   1
   2   5   4 5.04330 0.84446   1
   3   5   4 500.868 3.30760  -3
   0   8   1 500.868 3.30760  -2
   3   5   4 500.868 3.30760   1
   0   8   1 558.982 3.91642  -3
   3   5   4 558.982 3.91642  -2
   3   5   4 558.982 3.91642   1
   4   5   4 11.1182 1.00963   1
   4   4   5 50.8835 3.00281  -3
   1   9   0 50.8835 3.00281  -2
   5   5   4 50.8835 3.00281   1
   1   9   0 48.6619 3.64477  -3
   4   4   5 48.6619 3.64477  -2
   5   5   4 48.6619 3.64477   1
   1   7   3 89.1155 1.99216  -3
   1   7   3 89.1155 1.99216  -2
   0   6   4 89.1155 1.99216   1
   1   6   4 111.202 1.74470   1
   0   8   2 500.550 3.79498  -3
   2   6   4 500.550 3.79498  -2
   2   6   4 500.550 3.79498   1
   2   6   4 479.564 3.41284  -3
   0   8   2 479.564 3.41284  -2
   2   6   4 479.564 3.41284   1
   3   6   4 68.6032 1.40403   1
   1   9   1 62.7519 2.18587  -3
   3   5   5 62.7519 2.18587  -2
   4   6   4 62.7519 2.18587   1
   3   5   5 56.0501 1.96293  -3
   1   9   1 56.0501 1.96293  -2
   4   6   4 56.0501 1.96293   1
   5   6   4 19.1201 1.36034   1
   2  10   0 228.790 5.52169  -3
   4   4   6 228.790 5.52169  -2
   6   6   4 228.790 5.52169   1
   4   4   6 189.104 3.99710  -3
   2  10   0 189.104 3.99710  -2
   6   6   4 189.104 3.99710   1
   0   7   4 -0.6332 1.56025   1
   1   7   4 219.899 2.84688  -3
   0   8   3 219.899 2.84688  -2
   1   7   4 219.899 2.84688   1
   0   8   3 240.502 2.99983  -3
   1   7   4 240.502 2.99983  -2
   1   7   4 240.502 2.99983   1
   2   7   4 -0.2583 1.14360   1
   1   9   2 57.2641 2.58386  -3
   2   6   5 57.2641 2.58386  -2
   3   7   4 57.2641 2.58386   1
   2   6   5 55.5942 2.36430  -3
   1   9   2 55.5942 2.36430  -2
   3   7   4 55.5942 2.36430   1
   4   7   4 0.79732 1.37550   1
   3   5   6 211.261 3.52407  -3
   2  10   1 211.261 3.52407  -2
   5   7   4 211.261 3.52407   1
   2  10   1 235.458 3.38565  -3
   3   5   6 235.458 3.38565  -2
   5   7   4 235.458 3.38565   1
   6   7   4 2.17258 2.25713   1
   0   8   4 173.438 3.23900  -3
   0   8   4 173.438 3.23900  -2
   0   8   4 173.438 3.23900   1
   1   8   4 74.3011 2.06728   1
   1   9   3 67.5290 2.87083  -3
   1   7   5 67.5290 2.87083  -2
   2   8   4 67.5290 2.87083   1
   1   7   5 64.6777 2.54789  -3
   1   9   3 64.6777 2.54789  -2
   2   8   4 64.6777 2.54789   1
   3   8   4 51.7895 1.90897   1
   2  10   2 149.294 3.91078  -3
   2   6   6 149.294 3.91078  -2
   4   8   4 149.294 3.91078   1
   2   6   6 124.804 3.40700  -3
   2  10   2 124.804 3.40700  -2
   4   8   4 124.804 3.40700   1
   3   5   7 46.2634 12.4190  -3
   3  11   1 46.2634 12.4190  -2
   6   8   4 46.2634 12.4190   1
   3  11   1 184.139 19.3241  -3
   3   5   7 184.139 19.3241  -2
   6   8   4 184.139 19.3241   1
   7   8   4 1.06189 4.07062   1
   4  12   0 70.8539 10.7999  -3
   4   4   8 70.8539 10.7999  -2
   8   8   4 70.8539 10.7999   1
   0   9   4 0.39647 3.31119   1
   0   8   5 61.4221 3.03492  -3
   1   9   4 61.4221 3.03492  -2
   1   9   4 61.4221 3.03492   1
   1   9   4 48.2614 3.76127  -3
   0   8   5 48.2614 3.76127  -2
   1   9   4 48.2614 3.76127   1
   1   7   6 104.098 3.83411  -3
   2  10   3 104.098 3.83411  -2
   3   9   4 104.098 3.83411   1
   2  10   3 477.613 9.57145  -3
   1   7   6 477.613 9.57145  -2
   3   9   4 477.613 9.57145   1
   1   7   6 122.066 13.9085  -2
   3   9   4 122.066 13.9085   1
   4   9   4 43.0337 19.3616   1
   3  11   2 59.3995 14.6506  -3
   2   6   7 59.3995 14.6506  -2
   5   9   4 59.3995 14.6506   1
   6   9   4 6.32185 3.73116   1
   1   9   5 55.2701 4.81773  -3
   1   9   5 55.2701 4.81773  -2
   0  10   4 55.2701 4.81773   1
   1  10   4 33.1843 2.35720   1
   2  10   4 61.0295 6.56526  -3
   0   8   6 61.0295 6.56526  -2
   2  10   4 61.0295 6.56526   1
   3  10   4 27.0063 4.23434   1
   3  11   3 24.8257 5.78101  -3
   1   7   7 24.8257 5.78101  -2
   4  10   4 24.8257 5.78101   1
   1   7   7 34.7513 7.28099  -3
   3  11   3 34.7513 7.28099  -2
   4  10   4 34.7513 7.28099   1
   5  10   4 23.0401 4.51569   1
   0  11   4 2.42864 5.73722   1
   2  10   5 42.3713 6.13098  -3
   1   9   6 42.3713 6.13098  -2
   1  11   4 42.3713 6.13098   1
   1   9   6 36.4262 6.30379  -3
   2  10   5 36.4262 6.30379  -2
   1  11   4 36.4262 6.30379   1
   2  11   4 11.4079 4.37033   1
   5   5   0 162.345 3.53381  -3
   5   5   0 162.345 3.53381  -2
   0   0   5 162.345 3.53381   1
   0   1   5 -0.4112 1.12608   1
   4   6   0 24.1104 2.20097  -3
   5   5   1 24.1104 2.20097  -2
   1   1   5 24.1104 2.20097   1
   5   5   1 17.6420 2.17412  -3
   4   6   0 17.6420 2.17412  -2
   1   1   5 17.6420 2.17412   1
   4   6   1 208.946 2.10478  -3
   4   6   1 208.946 2.10478  -2
   0   2   5 208.946 2.10478   1
   1   2   5 28.1277 1.00492   1
   5   5   2 123.038 2.82820  -3
   3   7   0 123.038 2.82820  -2
   2   2   5 123.038 2.82820   1
   3   7   0 121.714 2.97758  -3
   5   5   2 121.714 2.97758  -2
   2   2   5 121.714 2.97758   1
   0   3   5 -0.8700 1.13535   1
   3   7   1 20.5493 1.64408  -3
   4   6   2 20.5493 1.64408  -2
   1   3   5 20.5493 1.64408   1
   4   6   2 15.6414 1.68407  -3
   3   7   1 15.6414 1.68407  -2
   1   3   5 15.6414 1.68407   1
   2   3   5 12.2622 1.01268   1
   2   8   0 31.5514 2.72684  -3
   5   5   3 31.5514 2.72684  -2
   3   3   5 31.5514 2.72684   1
   5   5   3 32.2683 2.80616  -3
   2   8   0 32.2683 2.80616  -2
   3   3   5 32.2683 2.80616   1
   3   7   2 87.9594 2.19642  -3
   3   7   2 87.9594 2.19642  -2
   0   4   5 87.9594 2.19642   1
   1   4   5 62.8214 1.33669   1
   4   6   3 57.3360 1.79983  -3
   2   8   1 57.3360 1.79983  -2
   2   4   5 57.3360 1.79983   1
   2   8   1 63.6405 2.25405  -3
   4   6   3 63.6405 2.25405  -2
   2   4   5 63.6405 2.25405   1
   3   4   5 35.0569 1.31617   1
   5   5   4 64.0996 2.95751  -3
   1   9   0 64.0996 2.95751  -2
   4   4   5 64.0996 2.95751   1
   1   9   0 58.0749 3.44865  -3
   5   5   4 58.0749 3.44865  -2
   4   4   5 58.0749 3.44865   1
   0   5   5 -1.2964 1.41651   1
   2   8   2 12.8935 2.23771  -3
   3   7   3 12.8935 2.23771  -2
   1   5   5 12.8935 2.23771   1
   3   7   3 21.1214 1.85012  -3
   2   8   2 21.1214 1.85012  -2
   1   5   5 21.1214 1.85012   1
   2   5   5 2.19895 1.10160   1
   1   9   1 41.7248 2.36009  -3
   4   6   4 41.7248 2.36009  -2
   3   5   5 41.7248 2.36009   1
   4   6   4 32.1249 2.16013  -3
   1   9   1 32.1249 2.16013  -2
   3   5   5 32.1249 2.16013   1
   4   5   5 7.43881 1.26221   1
   0  10   0 29.2167 4.12965  -3
   5   5   5 29.2167 4.12965  -2
   5   5   5 29.2167 4.12965   1
   5   5   5 28.4911 2.76411  -3
   0  10   0 28.4911 2.76411  -2
   5   5   5 28.4911 2.76411   1
   2   8   3 8.82886 2.45056  -3
   2   8   3 8.82886 2.45056  -2
   0   6   5 8.82886 2.45056   1
   1   6   5 70.2543 1.85451   1
   3   7   4 39.1671 2.45673  -3
   1   9   2 39.1671 2.45673  -2
   2   6   5 39.1671 2.45673   1
   1   9   2 42.2115 2.26218  -3
   3   7   4 42.2115 2.26218  -2
   2   6   5 42.2115 2.26218   1
   3   6   5 40.2400 1.67963   1
   4   6   5 11.2470 2.34320  -3
   0  10   1 11.2470 2.34320  -2
   4   6   5 11.2470 2.34320   1
   0  10   1 8.45924 3.28843  -3
   4   6   5 8.45924 3.28843  -2
   4   6   5 8.45924 3.28843   1
   5   6   5 10.6986 1.57196   1
   0   7   5 3.43821 2.13221   1
   1   9   3 19.5768 2.86026  -3
   2   8   4 19.5768 2.86026  -2
   1   7   5 19.5768 2.86026   1
   2   8   4 16.7262 2.78566  -3
   1   9   3 16.7262 2.78566  -2
   1   7   5 16.7262 2.78566   1
   2   7   5 1.21548 1.65389   1
   0  10   2 12.2290 3.05095  -3
   3   7   5 12.2290 3.05095  -2
   3   7   5 12.2290 3.05095   1
   3   7   5 28.8297 2.81502  -3
   0  10   2 28.8297 2.81502  -2
   3   7   5 28.8297 2.81502   1
   4   7   5 5.96606 5.21133   1
   4   6   6 47.3646 5.28254  -3
   1  11   1 47.3646 5.28254  -2
   5   7   5 47.3646 5.28254   1
   6   7   5 8.90316 3.34067   1
   5   5   7 17.2663 8.36054  -3
   2  12   0 17.2663 8.36054  -2
   7   7   5 17.2663 8.36054   1
   1   9   4 143.216 10.7715  -3
   1   9   4 143.216 10.7715  -2
   0   8   5 143.216 10.7715   1
   1   8   5 38.8192 2.23661   1
   1  11   2 46.3070 22.0946  -3
   3   7   6 46.3070 22.0946  -2
   4   8   5 46.3070 22.0946   1
   5   8   5 12.9858 2.85064   1
   4   6   7 23.3200 5.78515  -3
   2  12   1 23.3200 5.78515  -2
   6   8   5 23.3200 5.78515   1
   0   9   5 -1.9323 4.00324   1
   0  10   4 13.4320 5.98390  -3
   1   9   5 13.4320 5.98390  -2
   1   9   5 13.4320 5.98390   1
   1   9   5 57.7458 21.7084  -3
   0  10   4 57.7458 21.7084  -2
   1   9   5 57.7458 21.7084   1
   2   9   5 1.22917 3.23828   1
   1  11   3 43.7435 4.96990  -3
   2   8   6 43.7435 4.96990  -2
   3   9   5 43.7435 4.96990   1
   2   8   6 40.0753 7.65865  -3
   1  11   3 40.0753 7.65865  -2
   3   9   5 40.0753 7.65865   1
   4   9   5 9.90400 3.83607   1
   3   7   7 23.4977 7.19955  -3
   2  12   2 23.4977 7.19955  -2
   5   9   5 23.4977 7.19955   1
   2  12   2 34.2985 10.8975  -3
   3   7   7 34.2985 10.8975  -2
   5   9   5 34.2985 10.8975   1
   0  10   5 12.9352 5.73026  -3
   0  10   5 12.9352 5.73026  -2
   0  10   5 12.9352 5.73026   1
   1  10   5 25.0228 3.84204   1
   1  11   4 14.7389 6.52830  -3
   1   9   6 14.7389 6.52830  -2
   2  10   5 14.7389 6.52830   1
   1   9   6 24.4359 7.07655  -3
   1  11   4 24.4359 7.07655  -2
   2  10   5 24.4359 7.07655   1
   3  10   5 28.2315 4.75738   1
   6   6   0 884.300 10.4889  -3
   6   6   0 884.300 10.4889  -2
   0   0   6 884.300 10.4889   1
   0   1   6 -2.3632 1.58402   1
   5   7   0 355.129 4.71139  -3
   6   6   1 355.129 4.71139  -2
   1   1   6 355.129 4.71139   1
   6   6   1 388.121 4.62841  -3
   5   7   0 388.121 4.62841  -2
   1   1   6 388.121 4.62841   1
   5   7   1 130.001 2.77700  -3
   5   7   1 130.001 2.77700  -2
   0   2   6 130.001 2.77700   1
   1   2   6 11.6948 1.32802   1
   6   6   2 599.374 5.63522  -3
   4   8   0 599.374 5.63522  -2
   2   2   6 599.374 5.63522   1
   4   8   0 629.480 7.51232  -3
   6   6   2 629.480 7.51232  -2
   2   2   6 629.480 7.51232   1
   0   3   6 -0.9722 1.86160   1
   5   7   2 313.261 3.49097  -3
   4   8   1 313.261 3.49097  -2
   1   3   6 313.261 3.49097   1
   4   8   1 346.576 3.59818  -3
   5   7   2 346.576 3.59818  -2
   1   3   6 346.576 3.59818   1
   2   3   6 6.83042 1.34784   1
   6   6   3 161.694 3.61577  -3
   3   9   0 161.694 3.61577  -2
   3   3   6 161.694 3.61577   1
   3   9   0 166.453 4.67177  -3
   6   6   3 166.453 4.67177  -2
   3   3   6 166.453 4.67177   1
   4   8   2 435.746 4.27704  -3
   4   8   2 435.746 4.27704  -2
   0   4   6 435.746 4.27704   1
   1   4   6 30.5094 1.55906   1
   5   7   3 91.1784 2.99837  -3
   3   9   1 91.1784 2.99837  -2
   2   4   6 91.1784 2.99837   1
   3   9   1 95.7605 3.03042  -3
   5   7   3 95.7605 3.03042  -2
   2   4   6 95.7605 3.03042   1
   3   4   6 17.0286 1.47828   1
   2  10   0 257.800 5.64552  -3
   6   6   4 257.800 5.64552  -2
   4   4   6 257.800 5.64552   1
   6   6   4 245.211 4.84570  -3
   2  10   0 245.211 4.84570  -2
   4   4   6 245.211 4.84570   1
   0   5   6 2.88214 2.03672   1
   3   9   2 134.666 3.27295  -3
   4   8   3 134.666 3.27295  -2
   1   5   6 134.666 3.27295   1
   4   8   3 159.058 3.11431  -3
   3   9   2 159.058 3.11431  -2
   1   5   6 159.058 3.11431   1
   2   5   6 2.62373 1.66118   1
   2  10   1 226.832 3.61478  -3
   5   7   4 226.832 3.61478  -2
   3   5   6 226.832 3.61478   1
   5   7   4 200.779 3.55168  -3
   2  10   1 200.779 3.55168  -2
   3   5   6 200.779 3.55168   1
   4   5   6 4.07550 1.68941   1
   6   6   5 45.1044 4.86235  -3
   1  11   0 45.1044 4.86235  -2
   5   5   6 45.1044 4.86235   1
   1  11   0 52.0007 7.79790  -3
   6   6   5 52.0007 7.79790  -2
   5   5   6 52.0007 7.79790   1
   3   9   3 68.7992 2.82023  -3
   3   9   3 68.7992 2.82023  -2
   0   6   6 68.7992 2.82023   1
   1   6   6 34.1175 1.76012   1
   4   8   4 173.294 4.03974  -3
   2  10   2 173.294 4.03974  -2
   2   6   6 173.294 4.03974   1
   2  10   2 182.409 4.23661  -3
   4   8   4 182.409 4.23661  -2
   2   6   6 182.409 4.23661   1
   3   6   6 215.384 14.5058   1
   1  11   1 64.2662 6.01726  -3
   5   7   5 64.2662 6.01726  -2
   4   6   6 64.2662 6.01726   1
   5   7   5 49.6708 5.86413  -3
   1  11   1 49.6708 5.86413  -2
   4   6   6 49.6708 5.86413   1
   5   6   6 37.3326 10.1867   1
   6   6   6 82.9911 7.67143  -3
   0  12   0 82.9911 7.67143  -2
   6   6   6 82.9911 7.67143   1
   0  12   0 119.204 12.8270  -3
   6   6   6 119.204 12.8270  -2
   6   6   6 119.204 12.8270   1
   2  10   3 101.003 6.94250  -3
   3   9   4 101.003 6.94250  -2
   1   7   6 101.003 6.94250   1
   2   7   6 22.8135 14.7768   1
   4   8   5 41.6581 5.98411  -3
   1  11   2 41.6581 5.98411  -2
   3   7   6 41.6581 5.98411   1
   1  11   2 33.2872 5.28005  -3
   4   8   5 33.2872 5.28005  -2
   3   7   6 33.2872 5.28005   1
   4   7   6 45.3055 16.8554   1
   5   7   6 116.392 6.58468  -3
   0  12   1 116.392 6.58468  -2
   5   7   6 116.392 6.58468   1
   6   7   6 18.6187 5.18258   1
   2  10   4 83.5564 6.39453  -3
   2  10   4 83.5564 6.39453  -2
   0   8   6 83.5564 6.39453   1
   1   8   6 27.6871 3.24090   1
   1  11   3 59.7882 5.21508  -3
   3   9   5 59.7882 5.21508  -2
   2   8   6 59.7882 5.21508   1
   3   9   5 47.3832 5.36340  -3
   1  11   3 47.3832 5.36340  -2
   2   8   6 47.3832 5.36340   1
   3   8   6 13.8935 3.99986   1
   0  12   2 79.1827 8.08671  -3
   4   8   6 79.1827 8.08671  -2
   4   8   6 79.1827 8.08671   1
   4   8   6 47.4502 6.92591  -3
   0  12   2 47.4502 6.92591  -2
   4   8   6 47.4502 6.92591   1
   5   8   6 -9.6622 8.67523   1
   0   9   6 13.7688 5.80350   1
   2  10   5 45.0653 6.99347  -3
   1  11   4 45.0653 6.99347  -2
   1   9   6 45.0653 6.99347   1
   1  11   4 27.8974 7.18872  -3
   2  10   5 27.8974 7.18872  -2
   1   9   6 27.8974 7.18872   1
   2   9   6 8.19800 5.50565   1
   7   7   0 17.4473 5.10134  -3
   7   7   0 17.4473 5.10134  -2
   0   0   7 17.4473 5.10134   1
   0   1   7 2.61060 2.41462   1
   6   8   0 11.4912 4.43098  -3
   7   7   1 11.4912 4.43098  -2
   1   1   7 11.4912 4.43098   1
   7   7   1 8.76676 4.11518  -3
   6   8   0 8.76676 4.11518  -2
   1   1   7 8.76676 4.11518   1
   6   8   1 38.8411 3.24897  -3
   6   8   1 38.8411 3.24897  -2
   0   2   7 38.8411 3.24897   1
   1   2   7 7.59929 1.83607   1
   5   9   0 11.0642 4.74452  -3
   7   7   2 11.0642 4.74452  -2
   2   2   7 11.0642 4.74452   1
   7   7   2 17.4785 4.71872  -3
   5   9   0 17.4785 4.71872  -2
   2   2   7 17.4785 4.71872   1
   0   3   7 5.19584 2.82456   1
   5   9   1 11.8526 3.44654  -3
   6   8   2 11.8526 3.44654  -2
   1   3   7 11.8526 3.44654   1
   6   8   2 8.36158 3.22863  -3
   5   9   1 8.36158 3.22863  -2
   1   3   7 8.36158 3.22863   1
   2   3   7 5.67863 2.03506   1
   4  10   0 43.3302 20.4949  -3
   7   7   3 43.3302 20.4949  -2
   3   3   7 43.3302 20.4949   1
   5   9   2 17.6120 4.01134  -3
   5   9   2 17.6120 4.01134  -2
   0   4   7 17.6120 4.01134   1
   1   4   7 13.6475 2.37566   1
   4  10   1 18.9203 4.59347  -3
   6   8   3 18.9203 4.59347  -2
   2   4   7 18.9203 4.59347   1
   3   4   7 50.2804 21.2745   1
   5   9   3 44.6817 10.0607  -3
   4  10   2 44.6817 10.0607  -2
   1   5   7 44.6817 10.0607   1
   4  10   2 38.8391 13.6923  -3
   5   9   3 38.8391 13.6923  -2
   1   5   7 38.8391 13.6923   1
   3  11   1 214.944 22.3902  -3
   6   8   4 214.944 22.3902  -2
   3   5   7 214.944 22.3902   1
   6   8   4 177.964 20.7312  -3
   3  11   1 177.964 20.7312  -2
   3   5   7 177.964 20.7312   1
   4   5   7 0.79825 2.98206   1
   2  12   0 71.8263 12.6280  -3
   7   7   5 71.8263 12.6280  -2
   5   5   7 71.8263 12.6280   1
   4  10   3 18.1399 6.49503  -3
   4  10   3 18.1399 6.49503  -2
   0   6   7 18.1399 6.49503   1
   1   6   7 19.3022 3.61199   1
   3  11   2 24.8765 7.35067  -3
   5   9   4 24.8765 7.35067  -2
   2   6   7 24.8765 7.35067   1
   5   9   4 14.5983 6.65865  -3
   3  11   2 14.5983 6.65865  -2
   2   6   7 14.5983 6.65865   1
   3   6   7 14.4210 3.63855   1
   2  12   1 42.9477 9.52332  -3
   6   8   5 42.9477 9.52332  -2
   4   6   7 42.9477 9.52332   1
   6   8   5 14.9772 14.4092  -3
   2  12   1 14.9772 14.4092  -2
   4   6   7 14.9772 14.4092   1
   5   6   7 18.1328 5.27074   1
   0   7   7 14.1434 6.36181   1
   4  10   4 19.4625 7.07706  -3
   3  11   3 19.4625 7.07706  -2
   1   7   7 19.4625 7.07706   1
   3  11   3 23.1185 7.45712  -3
   4  10   4 23.1185 7.45712  -2
   1   7   7 23.1185 7.45712   1
   2   7   7 10.8643 4.68393   1
   5   9   5 21.0585 7.19842  -3
   2  12   2 21.0585 7.19842  -2
   3   7   7 21.0585 7.19842   1
   2  12   2 32.4664 7.48429  -3
   5   9   5 32.4664 7.48429  -2
   3   7   7 32.4664 7.48429   1
   8   8   0 261.799 12.6586  -3
   8   8   0 261.799 12.6586  -2
   0   0   8 261.799 12.6586   1
   0   1   8 -10.186 5.42477   1
   8   8   1 149.115 10.7445  -3
   7   9   0 149.115 10.7445  -2
   1   1   8 149.115 10.7445   1
   7   9   0 125.416 10.3873  -3
   8   8   1 125.416 10.3873  -2
   1   1   8 125.416 10.3873   1
   1   2   8 21.4804 8.33631   1
   8   8   2 162.546 8.95789  -3
   6  10   0 162.546 8.95789  -2
   2   2   8 162.546 8.95789   1
   6  10   0 158.888 10.8957  -3
   8   8   2 158.888 10.8957  -2
   2   2   8 158.888 10.8957   1
   0   3   8 6.66642 5.70861   1
   7   9   2 104.506 6.97286  -3
   6  10   1 104.506 6.97286  -2
   1   3   8 104.506 6.97286   1
   6  10   1 129.245 6.70356  -3
   7   9   2 129.245 6.70356  -2
   1   3   8 129.245 6.70356   1
   2   3   8 7.83535 3.42278   1
   5  11   0 88.5776 9.26654  -3
   8   8   3 88.5776 9.26654  -2
   3   3   8 88.5776 9.26654   1
   6  10   2 120.945 6.39860  -3
   6  10   2 120.945 6.39860  -2
   0   4   8 120.945 6.39860   1
   1   4   8 13.3802 3.45727   1
   7   9   3 53.7164 7.06466  -3
   5  11   1 53.7164 7.06466  -2
   2   4   8 53.7164 7.06466   1
   5  11   1 86.5947 7.08383  -3
   7   9   3 86.5947 7.08383  -2
   2   4   8 86.5947 7.08383   1
   3   4   8 7.65194 4.34888   1
   4  12   0 84.2209 11.6775  -3
   8   8   4 84.2209 11.6775  -2
   4   4   8 84.2209 11.6775   1
   8   8   4 71.4653 12.0016  -3
   4  12   0 71.4653 12.0016  -2
   4   4   8 71.4653 12.0016   1
   0   5   8 25.0941 5.75459   1
   5  11   2 81.1014 6.84824  -3
   6  10   3 81.1014 6.84824  -2
   1   5   8 81.1014 6.84824   1
   6  10   3 74.7963 7.37527  -3
   5  11   2 74.7963 7.37527  -2
   1   5   8 74.7963 7.37527   1
   2   5   8 13.7685 4.69701   1
   0   0   0    0.00    0.00   0
;
_shelx_hkl_checksum              87847

