####################################################################### 
# 
# This file contains crystal structure data downloaded from the 
# Cambridge Structural Database (CSD) hosted by the Cambridge 
# Crystallographic Data Centre (CCDC) in cooperation with FIZ Karlsruhe.
# 
# Please note that these data are only for research purposes or private use.
# For detailed information please see under Terms & Conditions.
# Full information about CCDC and FIZ Karlsruhe data access policies and 
# citation guidelines are available at http://www.ccdc.cam.ac.uk/access/V1
# 
# Audit and citation data items may have been added by FIZ Karlsruhe. 
# Please retain this information to preserve the provenance of 
# this file and to allow appropriate attribution of the data. 
# 
#######################################################################

data_28312-ICSD
_database_code_depnum_ccdc_archive 'CCDC 1603407'
_audit_update_record             
;
2018-02-26 deposited with the CCDC.	2022-09-15 downloaded from the CCDC.
;
_database_code_ICSD              28312
_chemical_name_systematic        'Cesium Lead Bromide'
_chemical_formula_sum            'Br3 Cs1 Pb1'
_cell_length_a                   4.597
_cell_length_b                   9.72
_cell_length_c                   16.81
_cell_angle_alpha                90
_cell_angle_beta                 90
_cell_angle_gamma                90
_cell_volume                     751.12
_cell_formula_units_Z            4
_symmetry_space_group_name_H-M   'P m n b'
_symmetry_Int_Tables_number      62
_symmetry_cell_setting           orthorhombic
loop_
_symmetry_equiv_pos_site_id
_symmetry_equiv_pos_as_xyz
1 'x, y+1/2, -z+1/2'
2 '-x+1/2, y, z'
3 'x+1/2, -y+1/2, z+1/2'
4 '-x, -y, -z'
5 '-x, -y+1/2, z+1/2'
6 'x+1/2, -y, -z'
7 '-x+1/2, y+1/2, -z+1/2'
8 'x, y, z'
loop_
_atom_site_label
_atom_site_type_symbol
_atom_site_fract_x
_atom_site_fract_y
_atom_site_fract_z
Cs1 Cs1+ 0.25 0.089 0.329
Pb1 Pb2+ 0.75 0.163 0.063
Br1 Br1- 0.25 0.335 0
Br2 Br1- 0.75 0.028 0.884
Br3 Br1- 0.75 0.302 0.211

#End of data_28312-ICSD


