####################################################################### 
# 
# This file contains crystal structure data downloaded from the 
# Cambridge Structural Database (CSD) hosted by the Cambridge 
# Crystallographic Data Centre (CCDC) in cooperation with FIZ Karlsruhe.
# 
# Please note that these data are only for research purposes or private use.
# For detailed information please see under Terms & Conditions.
# Full information about CCDC and FIZ Karlsruhe data access policies and 
# citation guidelines are available at http://www.ccdc.cam.ac.uk/access/V1
# 
# Audit and citation data items may have been added by FIZ Karlsruhe. 
# Please retain this information to preserve the provenance of 
# this file and to allow appropriate attribution of the data. 
# 
#######################################################################

data_97851-ICSD
_database_code_depnum_ccdc_archive 'CCDC 1657142'
loop_
_citation_id
_citation_doi
_citation_year
1 10.1023/A:1022836800820 2003
_audit_update_record             
;
2018-02-27 deposited with the CCDC.	2022-09-15 downloaded from the CCDC.
;
_database_code_ICSD              97851
_chemical_name_systematic        'Cesium Lead Bromide'
_chemical_formula_sum            'Br3 Cs1 Pb1'
_cell_length_a                   8.207
_cell_length_b                   8.255
_cell_length_c                   11.759
_cell_angle_alpha                90
_cell_angle_beta                 90
_cell_angle_gamma                90
_cell_volume                     796.66
_cell_formula_units_Z            4
_symmetry_space_group_name_H-M   'P b n m'
_symmetry_Int_Tables_number      62
_symmetry_cell_setting           orthorhombic
_refine_ls_R_factor_all          0.126
loop_
_symmetry_equiv_pos_site_id
_symmetry_equiv_pos_as_xyz
1 '-x+1/2, y+1/2, z'
2 'x, y, -z+1/2'
3 'x+1/2, -y+1/2, z+1/2'
4 '-x, -y, -z'
5 'x+1/2, -y+1/2, -z'
6 '-x, -y, z+1/2'
7 '-x+1/2, y+1/2, -z+1/2'
8 'x, y, z'
loop_
_atom_site_label
_atom_site_type_symbol
_atom_site_fract_x
_atom_site_fract_y
_atom_site_fract_z
Cs1 Cs1+ 0.99 0.971 0.25
Pb1 Pb2+ 0.5 0 0
Br1 Br1- 0.046 0.505 0.25
Br2 Br1- 0.793 0.205 0.025

#End of data_97851-ICSD


