####################################################################### 
# 
# This file contains crystal structure data downloaded from the 
# Cambridge Structural Database (CSD) hosted by the Cambridge 
# Crystallographic Data Centre (CCDC) in cooperation with FIZ Karlsruhe.
# 
# Please note that these data are only for research purposes or private use.
# For detailed information please see under Terms & Conditions.
# Full information about CCDC and FIZ Karlsruhe data access policies and 
# citation guidelines are available at http://www.ccdc.cam.ac.uk/access/V1
# 
# Audit and citation data items may have been added by FIZ Karlsruhe. 
# Please retain this information to preserve the provenance of 
# this file and to allow appropriate attribution of the data. 
# 
#######################################################################

data_8.RbSnF2I_293K
_audit_block_doi                 10.5517/ccdc.csd.cc1ncdr5
_database_code_depnum_ccdc_archive 'CCDC 1530307'
loop_
_citation_id
_citation_doi
_citation_year
1 10.1021/acs.inorgchem.6b02764 2017
_audit_update_record             
;
2017-01-30 deposited with the CCDC.	2022-09-05 downloaded from the CCDC.
;
#=======================================================================

_audit_creation_method           SHELXL-97
_chemical_name_systematic        'Rubidium Tin Fluoride Iodide'
_chemical_name_common            Rb6(Sn2F5)2(SnI5)I
_chemical_melting_point          ?
_chemical_formula_moiety         Rb6(Sn2F5)2(SnI5)I
_chemical_formula_sum            'F10 I6 Rb6 Sn5'
_chemical_formula_weight         2057.67

loop_
_atom_type_symbol
_atom_type_description
_atom_type_scat_dispersion_real
_atom_type_scat_dispersion_imag
_atom_type_scat_source
F F 0.0171 0.0103 'International Tables Vol C Tables 4.2.6.8 and 6.1.1.4'
Rb Rb -0.9393 2.9676 'International Tables Vol C Tables 4.2.6.8 and 6.1.1.4'
Sn Sn -0.6537 1.4246 'International Tables Vol C Tables 4.2.6.8 and 6.1.1.4'
I I -0.4742 1.8119 'International Tables Vol C Tables 4.2.6.8 and 6.1.1.4'

_space_group_crystal_system      monoclinic
_space_group_IT_number           12
_space_group_name_H-M_alt        'C 2/m'
_space_group_name_Hall           '-C 2y'

_shelx_space_group_comment       
;
The symmetry employed for this shelxl refinement is uniquely defined
by the following loop, which should always be used as a source of
symmetry information in preference to the above space-group names.
They are only intended as comments.
;

loop_
_space_group_symop_operation_xyz
'x, y, z'
'-x, y, -z'
'x+1/2, y+1/2, z'
'-x+1/2, y+1/2, -z'
'-x, -y, -z'
'x, -y, z'
'-x+1/2, -y+1/2, -z'
'x+1/2, -y+1/2, z'

_cell_length_a                   20.875(3)
_cell_length_b                   6.3614(5)
_cell_length_c                   12.5102(18)
_cell_angle_alpha                90
_cell_angle_beta                 107.829(11)
_cell_angle_gamma                90
_cell_volume                     1581.5(4)
_cell_formula_units_Z            2
_cell_measurement_temperature    293(2)
_cell_measurement_reflns_used    4132
_cell_measurement_theta_min      1.71
_cell_measurement_theta_max      28.52

_exptl_crystal_description       'Rectangular needle'
_exptl_crystal_colour            Orange
_exptl_crystal_density_meas      ?
_exptl_crystal_density_method    ?
_exptl_crystal_density_diffrn    4.321
_exptl_crystal_F_000             1760
_exptl_transmission_factor_min   ?
_exptl_transmission_factor_max   ?
_exptl_crystal_size_max          0.0623
_exptl_crystal_size_mid          0.0162
_exptl_crystal_size_min          0.0093
_exptl_absorpt_coefficient_mu    18.975
_shelx_estimated_absorpt_T_min   ?
_shelx_estimated_absorpt_T_max   ?
_exptl_absorpt_correction_type   integration
_exptl_absorpt_correction_T_min  0.2317
_exptl_absorpt_correction_T_max  0.7199
_exptl_absorpt_process_details   X-SHAPE
_diffrn_measurement_device       '2-circle goniometer'
_diffrn_measurement_device_type  'STOE IPDS 2T'
_diffrn_detector                 'image plate (34 cm diameter)'
_diffrn_detector_type            STOE
_diffrn_detector_area_resol_mean 6.67
_diffrn_source                   
'sealed X-ray tube, 12 x 0.4 mm long-fine focus'
_diffrn_source_voltage           40
_diffrn_source_current           30
_diffrn_source_power             1.20
_diffrn_radiation_type           'Mo K\a'
_diffrn_radiation_wavelength     0.71073
_diffrn_radiation_monochromator  'plane graphite'
_diffrn_radiation_polarisn_norm  0
_diffrn_radiation_collimation    '0.5 mm diameter, monocapillary'
_diffrn_ambient_temperature      293
_diffrn_measurement_method       'rotation method'
_diffrn_measurement_details      
; 180 frames, detector distance = 100 mm
;

_diffrn_reflns_number            5115
_diffrn_reflns_av_unetI/netI     0.0586
_diffrn_reflns_av_R_equivalents  0.0582
_diffrn_reflns_limit_h_min       -24
_diffrn_reflns_limit_h_max       24
_diffrn_reflns_limit_k_min       -6
_diffrn_reflns_limit_k_max       7
_diffrn_reflns_limit_l_min       -14
_diffrn_reflns_limit_l_max       14
_diffrn_reflns_theta_min         1.710
_diffrn_reflns_theta_max         24.987
_diffrn_reflns_theta_full        24.987
_diffrn_measured_fraction_theta_max 1.000
_diffrn_measured_fraction_theta_full 1.000
_diffrn_reflns_Laue_measured_fraction_max 1.000
_diffrn_reflns_Laue_measured_fraction_full 1.000
_diffrn_reflns_point_group_measured_fraction_max 1.000
_diffrn_reflns_point_group_measured_fraction_full 1.000
_reflns_number_total             1535
_reflns_number_gt                1131
_reflns_threshold_expression     'I > 2\s(I)'
_reflns_Friedel_coverage         0.000
_reflns_Friedel_fraction_max     .
_reflns_Friedel_fraction_full    .

_reflns_special_details          
;
 Reflections were merged by SHELXL according to the crystal
 class for the calculation of statistics and refinement.
 
 _reflns_Friedel_fraction is defined as the number of unique
 Friedel pairs measured divided by the number that would be
 possible theoretically, ignoring centric projections and
 systematic absences.
;

_computing_data_collection       ?
_computing_cell_refinement       ?
_computing_data_reduction        ?
_computing_structure_solution    ?
_computing_structure_refinement  'SHELXL-2014/7 (Sheldrick, 2014)'
_computing_molecular_graphics    ?
_computing_publication_material  ?
_refine_special_details          ?
_refine_ls_structure_factor_coef Fsqd
_refine_ls_matrix_type           full
_refine_ls_weighting_scheme      calc
_refine_ls_weighting_details     
'w=1/[\s^2^(Fo^2^)+(0.0502P)^2^] where P=(Fo^2^+2Fc^2^)/3'
_atom_sites_solution_primary     ?
_atom_sites_solution_secondary   ?
_atom_sites_solution_hydrogens   .
_refine_ls_hydrogen_treatment    undef
_refine_ls_extinction_method     none
_refine_ls_extinction_coef       .
_refine_ls_number_reflns         1535
_refine_ls_number_parameters     79
_refine_ls_number_restraints     0
_refine_ls_R_factor_all          0.0590
_refine_ls_R_factor_gt           0.0342
_refine_ls_wR_factor_ref         0.1015
_refine_ls_wR_factor_gt          0.0951
_refine_ls_goodness_of_fit_ref   1.063
_refine_ls_restrained_S_all      1.063
_refine_ls_shift/su_max          0.000
_refine_ls_shift/su_mean         0.000

loop_
_atom_site_label
_atom_site_type_symbol
_atom_site_fract_x
_atom_site_fract_y
_atom_site_fract_z
_atom_site_U_iso_or_equiv
_atom_site_adp_type
_atom_site_occupancy
_atom_site_site_symmetry_order
_atom_site_calc_flag
_atom_site_refinement_flags_posn
_atom_site_refinement_flags_adp
_atom_site_refinement_flags_occupancy
_atom_site_disorder_assembly
_atom_site_disorder_group
Sn1 Sn 0.11056(6) 0.0000 0.33703(9) 0.0260(3) Uani 1 2 d S T P . .
Sn2 Sn 0.0000 -0.5000 0.0000 0.0235(4) Uani 1 4 d S T P . .
Sn3 Sn 0.24513(6) -1.0000 0.14947(9) 0.0275(3) Uani 1 2 d S T P . .
Rb1 Rb 0.39274(9) 0.0000 0.43598(13) 0.0305(4) Uani 1 2 d S T P . .
Rb2 Rb 0.25687(9) 0.0000 0.63406(13) 0.0319(4) Uani 1 2 d S T P . .
Rb3 Rb 0.10669(11) -1.0000 -0.18080(16) 0.0439(5) Uani 1 2 d S T P . .
I1 I -0.00761(7) -0.5000 -0.25535(9) 0.0350(3) Uani 1 2 d S T P . .
I2 I 0.0000 -1.0000 -0.5000 0.0348(4) Uani 1 4 d S T P . .
I3 I 0.0000 0.0000 0.0000 0.0441(5) Uani 1 4 d S T P . .
I4 I 0.15752(7) -0.5000 0.04805(12) 0.0478(4) Uani 1 2 d S T P . .
F1 F 0.1631(3) 0.2169(10) 0.4507(5) 0.0320(16) Uani 1 1 d . . . . .
F2 F 0.2006(6) -1.0000 0.2824(9) 0.051(3) Uani 1 2 d S T P . .
F3 F 0.3098(4) -0.7816(10) 0.2446(5) 0.0349(16) Uani 1 1 d . . . . .

loop_
_atom_site_aniso_label
_atom_site_aniso_U_11
_atom_site_aniso_U_22
_atom_site_aniso_U_33
_atom_site_aniso_U_23
_atom_site_aniso_U_13
_atom_site_aniso_U_12
Sn1 0.0253(6) 0.0235(6) 0.0284(6) 0.000 0.0073(5) 0.000
Sn2 0.0285(9) 0.0188(8) 0.0239(8) 0.000 0.0089(7) 0.000
Sn3 0.0302(6) 0.0265(6) 0.0274(6) 0.000 0.0112(5) 0.000
Rb1 0.0339(10) 0.0277(9) 0.0317(8) 0.000 0.0129(7) 0.000
Rb2 0.0366(10) 0.0285(9) 0.0325(9) 0.000 0.0136(7) 0.000
Rb3 0.0515(13) 0.0361(10) 0.0551(11) 0.000 0.0327(10) 0.000
I1 0.0483(8) 0.0323(6) 0.0253(5) 0.000 0.0126(5) 0.000
I2 0.0409(10) 0.0295(9) 0.0388(9) 0.000 0.0196(8) 0.000
I3 0.0780(14) 0.0220(8) 0.0447(10) 0.000 0.0373(10) 0.000
I4 0.0345(7) 0.0508(8) 0.0527(8) 0.000 0.0054(6) 0.000
F1 0.035(4) 0.022(4) 0.036(3) -0.005(3) 0.006(3) 0.000(3)
F2 0.050(7) 0.072(8) 0.043(6) 0.000 0.032(5) 0.000
F3 0.040(4) 0.023(3) 0.039(3) 0.000(3) 0.008(3) -0.001(3)

_geom_special_details            
;
 All esds (except the esd in the dihedral angle between two l.s. planes)
 are estimated using the full covariance matrix.  The cell esds are taken
 into account individually in the estimation of esds in distances, angles
 and torsion angles; correlations between esds in cell parameters are only
 used when they are defined by crystal symmetry.  An approximate (isotropic)
 treatment of cell esds is used for estimating esds involving l.s. planes.
;

loop_
_geom_bond_atom_site_label_1
_geom_bond_atom_site_label_2
_geom_bond_distance
_geom_bond_site_symmetry_2
_geom_bond_publ_flag
Sn1 F1 2.043(6) 6 ?
Sn1 F1 2.043(6) . ?
Sn1 F2 2.188(11) 1_565 ?
Sn1 Rb2 4.023(2) . ?
Sn1 Rb2 4.1586(14) 7_556 ?
Sn1 Rb2 4.1586(14) 7_546 ?
Sn1 Rb1 4.2785(14) 7_556 ?
Sn1 Rb1 4.2785(14) 7_546 ?
Sn1 Rb3 4.354(3) 5_545 ?
Sn2 I1 3.1494(12) 5_545 ?
Sn2 I1 3.1494(12) . ?
Sn2 I4 3.1565(15) 5_545 ?
Sn2 I4 3.1565(15) . ?
Sn2 I3 3.1807(3) . ?
Sn2 I3 3.1807(3) 1_545 ?
Sn3 F3 2.046(6) . ?
Sn3 F3 2.046(6) 6_535 ?
Sn3 F2 2.139(11) . ?
Sn3 Rb1 3.947(2) 1_545 ?
Sn3 Rb2 4.1858(13) 7_546 ?
Sn3 Rb2 4.1858(13) 7_536 ?
Sn3 Rb3 4.256(2) . ?
Sn3 Rb3 4.3700(17) 7_535 ?
Sn3 Rb3 4.3700(17) 7_525 ?
Rb1 F1 2.761(7) 7_556 ?
Rb1 F1 2.761(7) 4_546 ?
Rb1 F3 2.850(6) 6_545 ?
Rb1 F3 2.850(6) 1_565 ?
Rb1 I1 3.765(2) 7_545 ?
Rb1 I1 3.784(2) 3_556 ?
Rb1 I2 3.8306(10) 3_566 ?
Rb1 I2 3.8306(10) 3_556 ?
Rb1 Sn3 3.947(2) 1_565 ?
Rb1 Rb1 4.269(4) 5_656 ?
Rb1 Sn1 4.2785(14) 7_556 ?
Rb1 Sn1 4.2785(14) 7_546 ?
Rb2 F1 2.871(7) 7_556 ?
Rb2 F1 2.871(7) 4_546 ?
Rb2 F1 2.872(6) . ?
Rb2 F1 2.872(6) 6 ?
Rb2 F3 2.958(7) 7_546 ?
Rb2 F3 2.958(7) 4_556 ?
Rb2 F2 3.381(4) 7_546 ?
Rb2 F2 3.381(4) 7_536 ?
Rb2 I4 3.828(2) 7_546 ?
Rb2 Sn1 4.1585(14) 7_556 ?
Rb2 Sn1 4.1585(14) 7_546 ?
Rb3 F3 2.781(7) 7_535 ?
Rb3 F3 2.781(7) 4_545 ?
Rb3 I3 3.628(2) 1_545 ?
Rb3 I1 3.9138(15) . ?
Rb3 I1 3.9138(15) 1_545 ?
Rb3 I2 3.932(2) . ?
Rb3 I4 4.1927(16) 1_545 ?
Rb3 I4 4.1927(16) . ?
Rb3 Sn1 4.354(3) 5_545 ?
Rb3 Sn3 4.3700(17) 7_535 ?
Rb3 Sn3 4.3700(17) 7_525 ?
I1 Rb1 3.765(2) 7_545 ?
I1 Rb1 3.784(2) 3_444 ?
I1 Rb3 3.9138(15) 1_565 ?
I2 Rb1 3.8306(10) 7_545 ?
I2 Rb1 3.8306(10) 3_434 ?
I2 Rb1 3.8306(10) 7_535 ?
I2 Rb1 3.8306(10) 3_444 ?
I2 Rb3 3.932(2) 5_534 ?
I3 Sn2 3.1807(3) 1_565 ?
I3 Rb3 3.628(2) 5_545 ?
I3 Rb3 3.628(2) 1_565 ?
I4 Rb2 3.828(2) 7_546 ?
I4 Rb3 4.1927(16) 1_565 ?
F1 Rb1 2.761(7) 7_556 ?
F1 Rb2 2.871(7) 7_556 ?
F2 Sn1 2.188(11) 1_545 ?
F2 Rb2 3.381(4) 7_546 ?
F2 Rb2 3.381(4) 7_536 ?
F3 Rb3 2.781(7) 7_535 ?
F3 Rb1 2.850(6) 1_545 ?
F3 Rb2 2.958(7) 7_546 ?

loop_
_geom_angle_atom_site_label_1
_geom_angle_atom_site_label_2
_geom_angle_atom_site_label_3
_geom_angle
_geom_angle_site_symmetry_1
_geom_angle_site_symmetry_3
_geom_angle_publ_flag
F1 Sn1 F1 85.0(4) 6 . ?
F1 Sn1 F2 83.6(3) 6 1_565 ?
F1 Sn1 F2 83.6(3) . 1_565 ?
F1 Sn1 Rb2 42.54(18) 6 . ?
F1 Sn1 Rb2 42.54(18) . . ?
F2 Sn1 Rb2 78.8(3) 1_565 . ?
F1 Sn1 Rb2 104.78(19) 6 7_556 ?
F1 Sn1 Rb2 38.91(19) . 7_556 ?
F2 Sn1 Rb2 54.17(10) 1_565 7_556 ?
Rb2 Sn1 Rb2 67.84(3) . 7_556 ?
F1 Sn1 Rb2 38.91(19) 6 7_546 ?
F1 Sn1 Rb2 104.77(19) . 7_546 ?
F2 Sn1 Rb2 54.17(10) 1_565 7_546 ?
Rb2 Sn1 Rb2 67.84(3) . 7_546 ?
Rb2 Sn1 Rb2 99.79(5) 7_556 7_546 ?
F1 Sn1 Rb1 98.88(18) 6 7_556 ?
F1 Sn1 Rb1 31.8(2) . 7_556 ?
F2 Sn1 Rb1 113.41(17) 1_565 7_556 ?
Rb2 Sn1 Rb1 63.19(3) . 7_556 ?
Rb2 Sn1 Rb1 61.26(3) 7_556 7_556 ?
Rb2 Sn1 Rb1 131.03(4) 7_546 7_556 ?
F1 Sn1 Rb1 31.8(2) 6 7_546 ?
F1 Sn1 Rb1 98.88(18) . 7_546 ?
F2 Sn1 Rb1 113.41(17) 1_565 7_546 ?
Rb2 Sn1 Rb1 63.19(3) . 7_546 ?
Rb2 Sn1 Rb1 131.03(4) 7_556 7_546 ?
Rb2 Sn1 Rb1 61.26(3) 7_546 7_546 ?
Rb1 Sn1 Rb1 96.05(4) 7_556 7_546 ?
F1 Sn1 Rb3 125.15(19) 6 5_545 ?
F1 Sn1 Rb3 125.15(19) . 5_545 ?
F2 Sn1 Rb3 137.4(3) 1_565 5_545 ?
Rb2 Sn1 Rb3 143.74(5) . 5_545 ?
Rb2 Sn1 Rb3 127.80(2) 7_556 5_545 ?
Rb2 Sn1 Rb3 127.80(2) 7_546 5_545 ?
Rb1 Sn1 Rb3 94.11(4) 7_556 5_545 ?
Rb1 Sn1 Rb3 94.11(4) 7_546 5_545 ?
I1 Sn2 I1 180.0 5_545 . ?
I1 Sn2 I4 85.37(4) 5_545 5_545 ?
I1 Sn2 I4 94.63(4) . 5_545 ?
I1 Sn2 I4 94.63(4) 5_545 . ?
I1 Sn2 I4 85.37(4) . . ?
I4 Sn2 I4 180.0 5_545 . ?
I1 Sn2 I3 90.0 5_545 . ?
I1 Sn2 I3 90.0 . . ?
I4 Sn2 I3 90.0 5_545 . ?
I4 Sn2 I3 90.0 . . ?
I1 Sn2 I3 90.0 5_545 1_545 ?
I1 Sn2 I3 90.0 . 1_545 ?
I4 Sn2 I3 90.0 5_545 1_545 ?
I4 Sn2 I3 90.0 . 1_545 ?
I3 Sn2 I3 180.0 . 1_545 ?
F3 Sn3 F3 85.5(4) . 6_535 ?
F3 Sn3 F2 85.1(3) . . ?
F3 Sn3 F2 85.1(3) 6_535 . ?
F3 Sn3 Rb1 43.87(18) . 1_545 ?
F3 Sn3 Rb1 43.87(18) 6_535 1_545 ?
F2 Sn3 Rb1 72.4(3) . 1_545 ?
F3 Sn3 Rb2 40.8(2) . 7_546 ?
F3 Sn3 Rb2 105.98(18) 6_535 7_546 ?
F2 Sn3 Rb2 53.44(10) . 7_546 ?
Rb1 Sn3 Rb2 64.67(3) 1_545 7_546 ?
F3 Sn3 Rb2 105.98(18) . 7_536 ?
F3 Sn3 Rb2 40.8(2) 6_535 7_536 ?
F2 Sn3 Rb2 53.44(10) . 7_536 ?
Rb1 Sn3 Rb2 64.67(3) 1_545 7_536 ?
Rb2 Sn3 Rb2 98.91(4) 7_546 7_536 ?
F3 Sn3 Rb3 134.09(18) . . ?
F3 Sn3 Rb3 134.09(18) 6_535 . ?
F2 Sn3 Rb3 115.3(3) . . ?
Rb1 Sn3 Rb3 172.27(5) 1_545 . ?
Rb2 Sn3 Rb3 119.33(3) 7_546 . ?
Rb2 Sn3 Rb3 119.33(3) 7_536 . ?
F3 Sn3 Rb3 29.6(2) . 7_535 ?
F3 Sn3 Rb3 96.8(2) 6_535 7_535 ?
F2 Sn3 Rb3 113.23(19) . 7_535 ?
Rb1 Sn3 Rb3 65.43(3) 1_545 7_535 ?
Rb2 Sn3 Rb3 62.35(3) 7_546 7_535 ?
Rb2 Sn3 Rb3 129.95(4) 7_536 7_535 ?
Rb3 Sn3 Rb3 109.80(3) . 7_535 ?
F3 Sn3 Rb3 96.8(2) . 7_525 ?
F3 Sn3 Rb3 29.6(2) 6_535 7_525 ?
F2 Sn3 Rb3 113.23(19) . 7_525 ?
Rb1 Sn3 Rb3 65.43(3) 1_545 7_525 ?
Rb2 Sn3 Rb3 129.95(4) 7_546 7_525 ?
Rb2 Sn3 Rb3 62.35(3) 7_536 7_525 ?
Rb3 Sn3 Rb3 109.80(3) . 7_525 ?
Rb3 Sn3 Rb3 93.41(5) 7_535 7_525 ?
F1 Rb1 F1 81.4(3) 7_556 4_546 ?
F1 Rb1 F3 120.4(2) 7_556 6_545 ?
F1 Rb1 F3 82.54(19) 4_546 6_545 ?
F1 Rb1 F3 82.54(19) 7_556 1_565 ?
F1 Rb1 F3 120.4(2) 4_546 1_565 ?
F3 Rb1 F3 58.4(3) 6_545 1_565 ?
F1 Rb1 I1 139.00(14) 7_556 7_545 ?
F1 Rb1 I1 139.00(14) 4_546 7_545 ?
F3 Rb1 I1 80.23(16) 6_545 7_545 ?
F3 Rb1 I1 80.23(16) 1_565 7_545 ?
F1 Rb1 I1 70.28(13) 7_556 3_556 ?
F1 Rb1 I1 70.28(13) 4_546 3_556 ?
F3 Rb1 I1 149.33(13) 6_545 3_556 ?
F3 Rb1 I1 149.33(13) 1_565 3_556 ?
I1 Rb1 I1 111.12(5) 7_545 3_556 ?
F1 Rb1 I2 70.29(14) 7_556 3_566 ?
F1 Rb1 I2 138.24(13) 4_546 3_566 ?
F3 Rb1 I2 138.26(14) 6_545 3_566 ?
F3 Rb1 I2 86.37(13) 1_565 3_566 ?
I1 Rb1 I2 71.73(3) 7_545 3_566 ?
I1 Rb1 I2 71.53(3) 3_556 3_566 ?
F1 Rb1 I2 138.24(13) 7_556 3_556 ?
F1 Rb1 I2 70.29(14) 4_546 3_556 ?
F3 Rb1 I2 86.37(13) 6_545 3_556 ?
F3 Rb1 I2 138.26(14) 1_565 3_556 ?
I1 Rb1 I2 71.73(3) 7_545 3_556 ?
I1 Rb1 I2 71.53(3) 3_556 3_556 ?
I2 Rb1 I2 112.27(5) 3_566 3_556 ?
F1 Rb1 Sn3 97.55(13) 7_556 1_565 ?
F1 Rb1 Sn3 97.55(13) 4_546 1_565 ?
F3 Rb1 Sn3 29.84(13) 6_545 1_565 ?
F3 Rb1 Sn3 29.84(13) 1_565 1_565 ?
I1 Rb1 Sn3 85.33(4) 7_545 1_565 ?
I1 Rb1 Sn3 163.55(6) 3_556 1_565 ?
I2 Rb1 Sn3 115.70(3) 3_566 1_565 ?
I2 Rb1 Sn3 115.70(3) 3_556 1_565 ?
F1 Rb1 Rb1 111.50(14) 7_556 5_656 ?
F1 Rb1 Rb1 111.50(14) 4_546 5_656 ?
F3 Rb1 Rb1 127.78(16) 6_545 5_656 ?
F3 Rb1 Rb1 127.78(16) 1_565 5_656 ?
I1 Rb1 Rb1 55.77(4) 7_545 5_656 ?
I1 Rb1 Rb1 55.35(4) 3_556 5_656 ?
I2 Rb1 Rb1 56.13(2) 3_566 5_656 ?
I2 Rb1 Rb1 56.13(2) 3_556 5_656 ?
Sn3 Rb1 Rb1 141.10(7) 1_565 5_656 ?
F1 Rb1 Sn1 22.96(13) 7_556 7_556 ?
F1 Rb1 Sn1 92.81(14) 4_546 7_556 ?
F3 Rb1 Sn1 142.28(15) 6_545 7_556 ?
F3 Rb1 Sn1 93.80(13) 1_565 7_556 ?
I1 Rb1 Sn1 122.75(3) 7_545 7_556 ?
I1 Rb1 Sn1 55.82(2) 3_556 7_556 ?
I2 Rb1 Sn1 51.033(19) 3_566 7_556 ?
I2 Rb1 Sn1 127.28(4) 3_556 7_556 ?
Sn3 Rb1 Sn1 115.85(4) 1_565 7_556 ?
Rb1 Rb1 Sn1 88.81(4) 5_656 7_556 ?
F1 Rb1 Sn1 92.81(14) 7_556 7_546 ?
F1 Rb1 Sn1 22.96(13) 4_546 7_546 ?
F3 Rb1 Sn1 93.80(13) 6_545 7_546 ?
F3 Rb1 Sn1 142.28(15) 1_565 7_546 ?
I1 Rb1 Sn1 122.75(3) 7_545 7_546 ?
I1 Rb1 Sn1 55.82(2) 3_556 7_546 ?
I2 Rb1 Sn1 127.28(4) 3_566 7_546 ?
I2 Rb1 Sn1 51.033(18) 3_556 7_546 ?
Sn3 Rb1 Sn1 115.85(4) 1_565 7_546 ?
Rb1 Rb1 Sn1 88.81(4) 5_656 7_546 ?
Sn1 Rb1 Sn1 96.05(4) 7_556 7_546 ?
F1 Rb2 F1 77.7(3) 7_556 4_546 ?
F1 Rb2 F1 74.6(2) 7_556 . ?
F1 Rb2 F1 109.74(13) 4_546 . ?
F1 Rb2 F1 109.74(13) 7_556 6 ?
F1 Rb2 F1 74.6(2) 4_546 6 ?
F1 Rb2 F1 57.4(2) . 6 ?
F1 Rb2 F3 103.21(18) 7_556 7_546 ?
F1 Rb2 F3 171.16(18) 4_546 7_546 ?
F1 Rb2 F3 78.81(18) . 7_546 ?
F1 Rb2 F3 112.8(2) 6 7_546 ?
F1 Rb2 F3 171.16(18) 7_556 4_556 ?
F1 Rb2 F3 103.21(18) 4_546 4_556 ?
F1 Rb2 F3 112.8(2) . 4_556 ?
F1 Rb2 F3 78.81(18) 6 4_556 ?
F3 Rb2 F3 74.6(3) 7_546 4_556 ?
F1 Rb2 F2 52.9(2) 7_556 7_546 ?
F1 Rb2 F2 125.2(2) 4_546 7_546 ?
F1 Rb2 F2 81.1(2) . 7_546 ?
F1 Rb2 F2 138.5(2) 6 7_546 ?
F3 Rb2 F2 52.5(2) 7_546 7_546 ?
F3 Rb2 F2 122.1(2) 4_556 7_546 ?
F1 Rb2 F2 125.2(2) 7_556 7_536 ?
F1 Rb2 F2 52.9(2) 4_546 7_536 ?
F1 Rb2 F2 138.5(2) . 7_536 ?
F1 Rb2 F2 81.1(2) 6 7_536 ?
F3 Rb2 F2 122.1(2) 7_546 7_536 ?
F3 Rb2 F2 52.5(2) 4_556 7_536 ?
F2 Rb2 F2 140.4(4) 7_546 7_536 ?
F1 Rb2 I4 104.14(12) 7_556 7_546 ?
F1 Rb2 I4 104.14(12) 4_546 7_546 ?
F1 Rb2 I4 144.77(13) . 7_546 ?
F1 Rb2 I4 144.77(13) 6 7_546 ?
F3 Rb2 I4 67.06(12) 7_546 7_546 ?
F3 Rb2 I4 67.06(12) 4_556 7_546 ?
F2 Rb2 I4 71.58(17) 7_546 7_546 ?
F2 Rb2 I4 71.58(17) 7_536 7_546 ?
F1 Rb2 Sn1 91.26(12) 7_556 . ?
F1 Rb2 Sn1 91.26(12) 4_546 . ?
F1 Rb2 Sn1 28.75(12) . . ?
F1 Rb2 Sn1 28.75(12) 6 . ?
F3 Rb2 Sn1 97.50(13) 7_546 . ?
F3 Rb2 Sn1 97.50(13) 4_556 . ?
F2 Rb2 Sn1 109.80(18) 7_546 . ?
F2 Rb2 Sn1 109.80(18) 7_536 . ?
I4 Rb2 Sn1 160.11(6) 7_546 . ?
F1 Rb2 Sn1 26.55(12) 7_556 7_556 ?
F1 Rb2 Sn1 93.71(14) 4_546 7_556 ?
F1 Rb2 Sn1 88.55(13) . 7_556 ?
F1 Rb2 Sn1 135.21(14) 6 7_556 ?
F3 Rb2 Sn1 84.11(14) 7_546 7_556 ?
F3 Rb2 Sn1 145.49(13) 4_556 7_556 ?
F2 Rb2 Sn1 31.64(19) 7_546 7_556 ?
F2 Rb2 Sn1 126.0(2) 7_536 7_556 ?
I4 Rb2 Sn1 79.81(3) 7_546 7_556 ?
Sn1 Rb2 Sn1 112.16(3) . 7_556 ?
F1 Rb2 Sn1 93.71(14) 7_556 7_546 ?
F1 Rb2 Sn1 26.55(12) 4_546 7_546 ?
F1 Rb2 Sn1 135.21(13) . 7_546 ?
F1 Rb2 Sn1 88.55(13) 6 7_546 ?
F3 Rb2 Sn1 145.49(13) 7_546 7_546 ?
F3 Rb2 Sn1 84.11(14) 4_556 7_546 ?
F2 Rb2 Sn1 126.0(2) 7_546 7_546 ?
F2 Rb2 Sn1 31.64(19) 7_536 7_546 ?
I4 Rb2 Sn1 79.81(3) 7_546 7_546 ?
Sn1 Rb2 Sn1 112.16(3) . 7_546 ?
Sn1 Rb2 Sn1 99.79(5) 7_556 7_546 ?
F3 Rb3 F3 80.2(3) 7_535 4_545 ?
F3 Rb3 I3 137.49(14) 7_535 1_545 ?
F3 Rb3 I3 137.49(15) 4_545 1_545 ?
F3 Rb3 I1 78.34(14) 7_535 . ?
F3 Rb3 I1 147.67(15) 4_545 . ?
I3 Rb3 I1 72.70(4) 1_545 . ?
F3 Rb3 I1 147.67(15) 7_535 1_545 ?
F3 Rb3 I1 78.35(14) 4_545 1_545 ?
I3 Rb3 I1 72.70(4) 1_545 1_545 ?
I1 Rb3 I1 108.72(6) . 1_545 ?
F3 Rb3 I2 85.32(13) 7_535 . ?
F3 Rb3 I2 85.32(13) 4_545 . ?
I3 Rb3 I2 111.60(5) 1_545 . ?
I1 Rb3 I2 69.12(3) . . ?
I1 Rb3 I2 69.12(3) 1_545 . ?
F3 Rb3 I4 129.41(15) 7_535 1_545 ?
F3 Rb3 I4 69.97(14) 4_545 1_545 ?
I3 Rb3 I4 69.49(4) 1_545 1_545 ?
I1 Rb3 I4 141.96(6) . 1_545 ?
I1 Rb3 I4 63.55(3) 1_545 1_545 ?
I2 Rb3 I4 129.77(3) . 1_545 ?
F3 Rb3 I4 69.97(14) 7_535 . ?
F3 Rb3 I4 129.41(15) 4_545 . ?
I3 Rb3 I4 69.49(4) 1_545 . ?
I1 Rb3 I4 63.55(3) . . ?
I1 Rb3 I4 141.96(6) 1_545 . ?
I2 Rb3 I4 129.77(3) . . ?
I4 Rb3 I4 98.69(5) 1_545 . ?
F3 Rb3 Sn3 88.83(14) 7_535 . ?
F3 Rb3 Sn3 88.83(14) 4_545 . ?
I3 Rb3 Sn3 76.04(4) 1_545 . ?
I1 Rb3 Sn3 114.49(4) . . ?
I1 Rb3 Sn3 114.49(4) 1_545 . ?
I2 Rb3 Sn3 172.36(6) . . ?
I4 Rb3 Sn3 51.86(3) 1_545 . ?
I4 Rb3 Sn3 51.86(3) . . ?
F3 Rb3 Sn1 121.95(14) 7_535 5_545 ?
F3 Rb3 Sn1 121.95(14) 4_545 5_545 ?
I3 Rb3 Sn1 61.70(4) 1_545 5_545 ?
I1 Rb3 Sn1 54.40(3) . 5_545 ?
I1 Rb3 Sn1 54.39(3) 1_545 5_545 ?
I2 Rb3 Sn1 49.90(3) . 5_545 ?
I4 Rb3 Sn1 108.51(4) 1_545 5_545 ?
I4 Rb3 Sn1 108.51(4) . 5_545 ?
Sn3 Rb3 Sn1 137.74(5) . 5_545 ?
F3 Rb3 Sn3 21.30(13) 7_535 7_535 ?
F3 Rb3 Sn3 90.35(15) 4_545 7_535 ?
I3 Rb3 Sn3 119.80(4) 1_545 7_535 ?
I1 Rb3 Sn3 78.06(2) . 7_535 ?
I1 Rb3 Sn3 167.44(5) 1_545 7_535 ?
I2 Rb3 Sn3 104.85(4) . 7_535 ?
I4 Rb3 Sn3 117.82(5) 1_545 7_535 ?
I4 Rb3 Sn3 50.39(3) . 7_535 ?
Sn3 Rb3 Sn3 70.20(3) . 7_535 ?
Sn1 Rb3 Sn3 130.67(3) 5_545 7_535 ?
F3 Rb3 Sn3 90.35(15) 7_535 7_525 ?
F3 Rb3 Sn3 21.30(13) 4_545 7_525 ?
I3 Rb3 Sn3 119.80(4) 1_545 7_525 ?
I1 Rb3 Sn3 167.44(5) . 7_525 ?
I1 Rb3 Sn3 78.06(2) 1_545 7_525 ?
I2 Rb3 Sn3 104.85(4) . 7_525 ?
I4 Rb3 Sn3 50.39(3) 1_545 7_525 ?
I4 Rb3 Sn3 117.82(5) . 7_525 ?
Sn3 Rb3 Sn3 70.20(3) . 7_525 ?
Sn1 Rb3 Sn3 130.67(3) 5_545 7_525 ?
Sn3 Rb3 Sn3 93.41(5) 7_535 7_525 ?
Sn2 I1 Rb1 139.92(5) . 7_545 ?
Sn2 I1 Rb1 151.20(5) . 3_444 ?
Rb1 I1 Rb1 68.88(5) 7_545 3_444 ?
Sn2 I1 Rb3 85.44(3) . 1_565 ?
Rb1 I1 Rb3 71.89(4) 7_545 1_565 ?
Rb1 I1 Rb3 110.35(4) 3_444 1_565 ?
Sn2 I1 Rb3 85.44(3) . . ?
Rb1 I1 Rb3 71.89(4) 7_545 . ?
Rb1 I1 Rb3 110.35(4) 3_444 . ?
Rb3 I1 Rb3 108.72(6) 1_565 . ?
Rb1 I2 Rb1 180.0 7_545 3_434 ?
Rb1 I2 Rb1 112.27(5) 7_545 7_535 ?
Rb1 I2 Rb1 67.73(5) 3_434 7_535 ?
Rb1 I2 Rb1 67.73(5) 7_545 3_444 ?
Rb1 I2 Rb1 112.27(5) 3_434 3_444 ?
Rb1 I2 Rb1 180.0 7_535 3_444 ?
Rb1 I2 Rb3 71.01(3) 7_545 . ?
Rb1 I2 Rb3 108.99(3) 3_434 . ?
Rb1 I2 Rb3 71.01(3) 7_535 . ?
Rb1 I2 Rb3 108.99(3) 3_444 . ?
Rb1 I2 Rb3 108.99(3) 7_545 5_534 ?
Rb1 I2 Rb3 71.01(3) 3_434 5_534 ?
Rb1 I2 Rb3 108.99(3) 7_535 5_534 ?
Rb1 I2 Rb3 71.01(3) 3_444 5_534 ?
Rb3 I2 Rb3 180.0 . 5_534 ?
Sn2 I3 Sn2 180.0 1_565 . ?
Sn2 I3 Rb3 90.0 1_565 5_545 ?
Sn2 I3 Rb3 90.0 . 5_545 ?
Sn2 I3 Rb3 90.0 1_565 1_565 ?
Sn2 I3 Rb3 90.0 . 1_565 ?
Rb3 I3 Rb3 180.00(4) 5_545 1_565 ?
Sn2 I4 Rb2 109.00(5) . 7_546 ?
Sn2 I4 Rb3 80.73(4) . 1_565 ?
Rb2 I4 Rb3 130.49(3) 7_546 1_565 ?
Sn2 I4 Rb3 80.73(4) . . ?
Rb2 I4 Rb3 130.49(3) 7_546 . ?
Rb3 I4 Rb3 98.69(5) 1_565 . ?
Sn1 F1 Rb1 125.2(3) . 7_556 ?
Sn1 F1 Rb2 114.5(3) . 7_556 ?
Rb1 F1 Rb2 99.5(2) 7_556 7_556 ?
Sn1 F1 Rb2 108.7(3) . . ?
Rb1 F1 Rb2 101.25(19) 7_556 . ?
Rb2 F1 Rb2 105.4(2) 7_556 . ?
Sn3 F2 Sn1 149.6(6) . 1_545 ?
Sn3 F2 Rb2 96.0(2) . 7_546 ?
Sn1 F2 Rb2 94.2(2) 1_545 7_546 ?
Sn3 F2 Rb2 96.0(2) . 7_536 ?
Sn1 F2 Rb2 94.2(2) 1_545 7_536 ?
Rb2 F2 Rb2 140.4(4) 7_546 7_536 ?
Sn3 F3 Rb3 129.1(3) . 7_535 ?
Sn3 F3 Rb1 106.3(2) . 1_545 ?
Rb3 F3 Rb1 106.4(2) 7_535 1_545 ?
Sn3 F3 Rb2 112.3(3) . 7_546 ?
Rb3 F3 Rb2 101.1(2) 7_535 7_546 ?
Rb1 F3 Rb2 97.1(2) 1_545 7_546 ?

_refine_diff_density_max         1.373
_refine_diff_density_min         -1.966
_refine_diff_density_rms         0.430

